 &FCI NORB=   7,NELEC=10,MS2=0,
  ORBSYM=1,1,1,1,1,1,1,
  ISYM=1,
 &END
 4.74450883399266    1    1    1    1
 -0.4166760416428255    1    1    2    1
 1.004589675177819    1    1    2    2
 0.799846726174148    1    1    3    3
 0.1835515856230698    1    1    4    1
 -0.1284870554216195    1    1    4    2
 0.9997086120729519    1    1    4    4
 1.115336303333827    1    1    5    5
 -0.2379203208026644    1    1    6    1
 0.3082404288306632    1    1    6    2
 -1.929012505286209e-15    1    1    6    3
 0.219464851155946    1    1    6    4
 0.8026155006501493    1    1    6    6
 -1.227029937740821e-15    1    1    7    1
 1.666544875865707e-15    1    1    7    2
 0.3624311679816489    1    1    7    3
 1.237623645397632e-15    1    1    7    4
 0.8689214923113764    1    1    7    7
 -0.4166760416428259    2    1    1    1
 0.05818122754562027    2    1    2    1
 -0.01297731465634024    2    1    2    2
 -0.004406569860650705    2    1    3    3
 -0.02249512627025177    2    1    4    1
 0.009209731766699949    2    1    4    2
 -0.01356057359118659    2    1    4    4
 -0.01169511206540613    2    1    5    5
 0.03578816600666719    2    1    6    1
 -0.006646603324356102    2    1    6    2
 -0.002236136471297817    2    1    6    4
 -0.00697967186008714    2    1    6    6
 -0.00750216210179826    2    1    7    3
 -0.009399666651157079    2    1    7    7
 1.00458967517782    2    2    1    1
 -0.0129773146563403    2    2    2    1
 0.728141524188564    2    2    2    2
 0.6450827724188648    2    2    3    3
 0.01604402655764571    2    2    4    1
 0.004021954180930581    2    2    4    2
 0.6756410547638748    2    2    4    4
 0.7474118114056654    2    2    5    5
 -0.0007876662645497898    2    2    6    1
 0.1428847423732436    2    2    6    2
 0.09550676550935967    2    2    6    4
 0.6141044477503015    2    2    6    6
 0.1383600466025147    2    2    7    3
 0.6242083180674606    2    2    7    7
 0.0109925369156671    3    1    3    1
 0.01776229148434366    3    1    3    2
 -0.003436638604676574    3    1    4    3
 0.003147563017102645    3    1    6    3
 0.01531307308782452    3    1    7    1
 0.01387998952371285    3    1    7    2
 -0.009630809755506467    3    1    7    4
 0.009206210824514709    3    1    7    6
 0.01776229148434368    3    2    3    1
 0.1444016043836295    3    2    3    2
 0.02000110966261071    3    2    4    3
 -0.0401190795972152    3    2    6    3
 -1.040906581215262e-15    3    2    6    6
 0.02310162210035234    3    2    7    1
 0.04037409211020909    3    2    7    2
 -0.07708984520501264    3    2    7    4
 0.09858809389178895    3    2    7    6
 1.051329596734205e-15    3    2    7    7
 0.799846726174148    3    3    1    1
 -0.004406569860650756    3    3    2    1
 0.6450827724188648    3    3    2    2
 0.6329124986250736    3    3    3    3
 0.006466841415484236    3    3    4    1
 0.006900872121813294    3    3    4    2
 0.598436886258372    3    3    4    4
 0.6288244124794545    3    3    5    5
 0.0002001864133491537    3    3    6    1
 0.07584603153334965    3    3    6    2
 0.04325290864179644    3    3    6    4
 0.5713993785152235    3    3    6    6
 0.09040850138679948    3    3    7    3
 0.6106951557599045    3    3    7    7
 0.1835515856230699    4    1    1    1
 -0.02249512627025177    4    1    2    1
 0.01604402655764569    4    1    2    2
 0.006466841415484223    4    1    3    3
 0.02776747221618606    4    1    4    1
 0.01892369387068463    4    1    4    2
 -0.01135928208773013    4    1    4    4
 0.005117009212043976    4    1    5    5
 -0.0005571257379234913    4    1    6    1
 0.01865034633536184    4    1    6    2
 0.002339846277591443    4    1    6    4
 0.02118351846681783    4    1    6    6
 -0.0008223325048642906    4    1    7    3
 0.00416770957069923    4    1    7    7
 -0.1284870554216196    4    2    1    1
 0.009209731766699973    4    2    2    1
 0.004021954180930562    4    2    2    2
 0.006900872121813326    4    2    3    3
 0.01892369387068463    4    2    4    1
 0.1240737106763822    4    2    4    2
 -0.1044431604055705    4    2    4    4
 -0.06882278230947142    4    2    5    5
 0.02034449124496221    4    2    6    1
 0.02098430319116189    4    2    6    2
 -0.03143494562128145    4    2    6    4
 0.05857054948691313    4    2    6    6
 -0.07624010077121979    4    2    7    3
 -0.01384737456869532    4    2    7    7
 -0.003436638604676577    4    3    3    1
 0.02000110966261072    4    3    3    2
 0.04726426849837194    4    3    4    3
 -0.02863160220687991    4    3    6    3
 -0.004955360227192852    4    3    7    1
 -0.03406926796461925    4    3    7    2
 0.002250100538612909    4    3    7    4
 0.04769095317437953    4    3    7    6
 0.9997086120729529    4    4    1    1
 -0.01356057359118676    4    4    2    1
 0.6756410547638749    4    4    2    2
 0.5984368862583719    4    4    3    3
 -0.01135928208773006    4    4    4    1
 -0.1044431604055706    4    4    4    2
 0.7825450696794068    4    4    4    4
 0.7288395649790887    4    4    5    5
 -0.01922979109481544    4    4    6    1
 0.0881619826414097    4    4    6    2
 0.1213993790317203    4    4    6    4
 0.5490530188324074    4    4    6    6
 0.1600131757957984    4    4    7    3
 0.6081834830618789    4    4    7    7
 0.02604442002031954    5    1    5    1
 0.03246325682700259    5    1    5    2
 -0.01344650266538214    5    1    5    4
 0.01574393376209703    5    1    6    5
 0.0324632568270026    5    2    5    1
 0.1444745909835212    5    2    5    2
 -0.04690049778951974    5    2    5    4
 0.05909939227193864    5    2    6    5
 0.02879487155319796    5    3    5    3
 0.02368880810312042    5    3    7    5
 -0.01344650266538215    5    4    5    1
 -0.04690049778951972    5    4    5    2
 0.05589744955158048    5    4    5    4
 -0.0017298413086906    5    4    6    5
 1.115336303333828    5    5    1    1
 -0.01169511206540634    5    5    2    1
 0.7474118114056655    5    5    2    2
 0.6288244124794546    5    5    3    3
 0.005117009212044069    5    5    4    1
 -0.06882278230947148    5    5    4    2
 0.7288395649790889    5    5    4    4
 0.8801590933750452    5    5    5    5
 -0.006207453868956953    5    5    6    1
 0.158556302227649    5    5    6    2
 0.1163492913703746    5    5    6    4
 0.5889122159076096    5    5    6    6
 0.1898473859284572    5    5    7    3
 0.6249740681139812    5    5    7    7
 -0.2379203208026645    6    1    1    1
 0.03578816600666714    6    1    2    1
 -0.0007876662645497589    6    1    2    2
 0.0002001864133491882    6    1    3    3
 -0.0005571257379234859    6    1    4    1
 0.02034449124496219    6    1    4    2
 -0.01922979109481534    6    1    4    4
 -0.006207453868956842    6    1    5    5
 0.03129952887806165    6    1    6    1
 0.006812650785328604    6    1    6    2
 -0.0002850700464518158    6    1    6    4
 0.008408028998661363    6    1    6    6
 -0.006983756307223236    6    1    7    3
 -0.005125274836439315    6    1    7    7
 0.3082404288306635    6    2    1    1
 -0.00664660332435618    6    2    2    1
 0.1428847423732435    6    2    2    2
 0.07584603153334959    6    2    3    3
 0.0186503463353619    6    2    4    1
 0.02098430319116179    6    2    4    2
 0.08816198264140945    6    2    4    4
 0.1585563022276489    6    2    5    5
 0.006812650785328554    6    2    6    1
 0.101875802914567    6    2    6    2
 0.060981485142848    6    2    6    4
 0.09676818066545992    6    2    6    6
 0.07672919944860748    6    2    7    3
 0.0690387172537453    6    2    7    7
 -1.913566435976554e-15    6    3    1    1
 0.003147563017102653    6    3    3    1
 -0.04011907959721516    6    3    3    2
 -0.02863160220688    6    3    4    3
 -1.013078509970455e-15    6    3    5    5
 0.07094436959866793    6    3    6    3
 0.003860699616885949    6    3    7    1
 0.03532221220520634    6    3    7    2
 0.04447344771013437    6    3    7    4
 -0.06453491591031428    6    3    7    6
 -1.055943905732154e-15    6    3    7    7
 0.2194648511559466    6    4    1    1
 -0.002236136471297855    6    4    2    1
 0.09550676550935984    6    4    2    2
 0.04325290864179655    6    4    3    3
 0.002339846277591461    6    4    4    1
 -0.0314349456212815    6    4    4    2
 0.1213993790317205    6    4    4    4
 0.1163492913703748    6    4    5    5
 -0.0002850700464518097    6    4    6    1
 0.06098148514284819    6    4    6    2
 0.06876771442543345    6    4    6    4
 0.04460605156405081    6    4    6    6
 0.07851407075147797    6    4    7    3
 0.04156460191947563    6    4    7    7
 0.01574393376209704    6    5    5    1
 0.05909939227193861    6    5    5    2
 -0.001729841308690597    6    5    5    4
 0.03858375166962362    6    5    6    5
 0.8026155006501502    6    6    1    1
 -0.006979671860087429    6    6    2    1
 0.6141044477503012    6    6    2    2
 -1.02695629777827e-15    6    6    3    2
 0.5713993785152233    6    6    3    3
 0.02118351846681798    6    6    4    1
 0.05857054948691318    6    6    4    2
 0.549053018832407    6    6    4    4
 0.5889122159076088    6    6    5    5
 0.00840802899866115    6    6    6    1
 0.0967681806654596    6    6    6    2
 0.04460605156405073    6    6    6    4
 0.5970921728213843    6    6    6    6
 0.03796063592334488    6    6    7    3
 -1.143560050865811e-15    6    6    7    6
 0.5662769500393212    6    6    7    7
 -1.235697403233725e-15    7    1    1    1
 0.01531307308782453    7    1    3    1
 0.02310162210035232    7    1    3    2
 -0.004955360227192848    7    1    4    3
 0.00386069961688594    7    1    6    3
 0.02138931013919782    7    1    7    1
 0.01831112930897535    7    1    7    2
 -0.01319535600942525    7    1    7    4
 0.0121902117629786    7    1    7    6
 1.73400688610343e-15    7    2    1    1
 0.01387998952371286    7    2    3    1
 0.0403740921102091    7    2    3    2
 -0.03406926796461927    7    2    4    3
 0.03532221220520645    7    2    6    3
 0.01831112930897537    7    2    7    1
 0.0619230770582357    7    2    7    2
 -0.01667559186546647    7    2    7    4
 -0.009929679758932089    7    2    7    6
 0.3624311679816494    7    3    1    1
 -0.007502162101798385    7    3    2    1
 0.1383600466025148    7    3    2    2
 0.09040850138679936    7    3    3    3
 -0.0008223325048642111    7    3    4    1
 -0.07624010077121986    7    3    4    2
 0.1600131757957984    7    3    4    4
 0.1898473859284573    7    3    5    5
 -0.006983756307223324    7    3    6    1
 0.07672919944860754    7    3    6    2
 0.0785140707514779    7    3    6    4
 0.0379606359233452    7    3    6    6
 0.1524974703675718    7    3    7    3
 0.09323069154995028    7    3    7    7
 1.231075991473506e-15    7    4    1    1
 -0.009630809755506474    7    4    3    1
 -0.07708984520501262    7    4    3    2
 0.002250100538612951    7    4    4    3
 0.04447344771013421    7    4    6    3
 -0.01319535600942525    7    4    7    1
 -0.01667559186546641    7    4    7    2
 0.06897199221145878    7    4    7    4
 -0.05792043378518535    7    4    7    6
 0.02368880810312043    7    5    5    3
 0.02435372650142203    7    5    7    5
 0.009206210824514715    7    6    3    1
 0.09858809389178884    7    6    3    2
 0.04769095317437963    7    6    4    3
 -0.06453491591031427    7    6    6    3
 -1.075690471184658e-15    7    6    6    6
 0.01219021176297859    7    6    7    1
 -0.009929679758932157    7    6    7    2
 -0.05792043378518548    7    6    7    4
 0.1153140730657648    7    6    7    6
 0.8689214923113775    7    7    1    1
 -0.009399666651157407    7    7    2    1
 0.6242083180674608    7    7    2    2
 1.068589661201713e-15    7    7    3    2
 0.6106951557599045    7    7    3    3
 0.004167709570699419    7    7    4    1
 -0.01384737456869523    7    7    4    2
 0.6081834830618787    7    7    4    4
 0.624974068113981    7    7    5    5
 -0.005125274836439594    7    7    6    1
 0.06903871725374523    7    7    6    2
 -1.124100812432971e-15    7    7    6    3
 0.04156460191947552    7    7    6    4
 0.5662769500393212    7    7    6    6
 0.09323069154995005    7    7    7    3
 0.6194888283245098    7    7    7    7
 -32.70234711890166    1    1  0  0
 0.5581271617347014    2    1  0  0
 -7.670483038655225    2    2  0  0
 -6.363319375965389    3    3  0  0
 -0.2351215041836721    4    1  0  0
 0.4318448313041622    4    2  0  0
 -1.280605105847048e-15    4    3  0  0
 -6.985740306394804    4    4  0  0
 2.788927673682124e-15    5    3  0  0
 -7.456978213052515    5    5  0  0
 0.3045545356705836    6    1  0  0
 -1.381160806195374    6    2  0  0
 9.025968433577586e-15    6    3  0  0
 -1.080480683737987    6    4  0  0
 -5.335786589182746    6    6  0  0
 1.318116207259422e-15    7    1  0  0
 -7.317449684832294e-15    7    2  0  0
 -1.710086384456621    7    3  0  0
 -5.340584424090509e-15    7    4  0  0
 -2.624182860155545e-15    7    5  0  0
 2.549542697950346e-15    7    6  0  0
 -5.603439629817276    7    7  0  0
 9.187333579045371  0  0  0  0
