 &FCI NORB=  10,NELEC=10,MS2=0,
  ORBSYM=1,1,1,1,1,1,1,1,1,1,
  ISYM=1,
 &END
 0.6884050175544957    1    1    1    1
 -0.01288910535621528    2    1    1    1
 0.01610255800068957    2    1    2    1
 0.347490980517635    2    2    1    1
 -0.00817752946436685    2    2    2    1
 0.6753874514397589    2    2    2    2
 -0.01190334954293415    3    1    1    1
 0.006768337903212847    3    1    2    1
 0.004709502218963644    3    1    2    2
 0.1253299191066212    3    1    3    1
 0.009147076636325368    3    2    1    1
 0.003741067645076573    3    2    2    1
 -0.02061803664823215    3    2    2    2
 -0.005334985350534807    3    2    3    1
 0.007953873365770083    3    2    3    2
 0.6352169231727675    3    3    1    1
 -0.01809839813826437    3    3    2    1
 0.3429761375841997    3    3    2    2
 -0.01658651473048085    3    3    3    1
 0.009610386904843385    3    3    3    2
 0.640088334643114    3    3    3    3
 0.006497259125212611    4    1    1    1
 -7.021253785682798e-05    4    1    2    1
 -0.008443782105164704    4    1    2    2
 0.002640353987012389    4    1    3    1
 0.002823517114634094    4    1    3    2
 0.007012147168149113    4    1    3    3
 0.06505981276257365    4    1    4    1
 0.003883985362912955    4    2    1    1
 -0.002589879118464136    4    2    2    1
 0.005551988310502411    4    2    2    2
 0.01528612169152472    4    2    3    1
 -0.003961199346553323    4    2    3    2
 0.005025507647887472    4    2    3    3
 -0.0006564187433098317    4    2    4    1
 0.0669003939586257    4    2    4    2
 0.005161741539680175    4    3    1    1
 0.004203655872188691    4    3    2    1
 -0.008575188189927462    4    3    2    2
 0.002214333155280255    4    3    3    1
 0.002314383466122877    4    3    3    2
 0.003380657752962804    4    3    3    3
 -0.0007882223976963909    4    3    4    1
 -0.004929441871394006    4    3    4    2
 0.01884360127479527    4    3    4    3
 0.4792810258768283    4    4    1    1
 -0.01152575963575406    4    4    2    1
 0.4919908874064369    4    4    2    2
 -0.001376494378569713    4    4    3    1
 -0.0082191965573784    4    4    3    2
 0.451097227069537    4    4    3    3
 0.002303816847208684    4    4    4    1
 0.002747651422897183    4    4    4    2
 -0.002411384330839925    4    4    4    3
 0.486980831705885    4    4    4    4
 0.0433582984102217    5    1    1    1
 0.01965575020126698    5    1    2    1
 -0.07335387868669239    5    1    2    2
 0.007042676724183807    5    1    3    1
 0.006168047384465096    5    1    3    2
 0.02249622947094016    5    1    3    3
 -0.00542441778072502    5    1    4    1
 -0.0008404481760448873    5    1    4    2
 0.007265663061103688    5    1    4    3
 -0.02140095434369587    5    1    4    4
 0.05980425821613885    5    1    5    1
 0.07894634231328089    5    2    1    1
 -0.02238889674137082    5    2    2    1
 -0.03266129247311109    5    2    2    2
 -0.001668428280914393    5    2    3    1
 -0.005757875040726787    5    2    3    2
 0.07054484301991991    5    2    3    3
 -0.007600996230330256    5    2    4    1
 0.008739499488118049    5    2    4    2
 -0.003894427046434603    5    2    4    3
 0.01873986364432009    5    2    4    4
 0.00696457286016893    5    2    5    1
 0.113245319938376    5    2    5    2
 0.02318892112432125    5    3    1    1
 0.0004633553539038439    5    3    2    1
 -0.02471623568778741    5    3    2    2
 0.004834834091045235    5    3    3    1
 0.00778933295957267    5    3    3    2
 0.02320735068108066    5    3    3    3
 0.00464326127222018    5    3    4    1
 -0.006667264818563804    5    3    4    2
 0.0001134764760757974    5    3    4    3
 -0.002137837495114553    5    3    4    4
 0.008837585892484283    5    3    5    1
 0.00357279215429915    5    3    5    2
 0.01635804972147486    5    3    5    3
 -0.01845888766879435    5    4    1    1
 -0.001413296867764059    5    4    2    1
 0.02131162897059036    5    4    2    2
 0.006156186026425101    5    4    3    1
 -0.004530793933465465    5    4    3    2
 -0.01435760048880877    5    4    3    3
 -0.0009615325340881795    5    4    4    1
 -0.004416897620644879    5    4    4    2
 -0.001841802420426721    5    4    4    3
 0.00315722787576515    5    4    4    4
 -0.01062013726903969    5    4    5    1
 -0.0004393149746314574    5    4    5    2
 -0.003619110514707095    5    4    5    3
 0.02224685564630939    5    4    5    4
 0.4353805784419061    5    5    1    1
 -0.009690332882574971    5    5    2    1
 0.567678750829147    5    5    2    2
 0.002038298419249785    5    5    3    1
 -0.01102066313157726    5    5    3    2
 0.4112737217354886    5    5    3    3
 -0.01136953914530074    5    5    4    1
 0.003556670945684219    5    5    4    2
 -0.004658680839433329    5    5    4    3
 0.4682514708369765    5    5    4    4
 -0.04249238244396764    5    5    5    1
 -0.01385335100432519    5    5    5    2
 -0.01113947952344224    5    5    5    3
 0.01121013682435791    5    5    5    4
 0.5498437639260179    5    5    5    5
 0.004448853570610056    6    1    1    1
 0.0003200295769626907    6    1    2    1
 -0.001434687809573411    6    1    2    2
 0.001472499349622009    6    1    3    1
 0.001575611688544315    6    1    3    2
 0.003043863413550179    6    1    3    3
 -0.06204230894706405    6    1    4    1
 0.004167709779653425    6    1    4    2
 0.002423855590522975    6    1    4    3
 -0.003548268920353025    6    1    4    4
 0.009573363245095917    6    1    5    1
 0.01108306317774377    6    1    5    2
 0.001189568194649334    6    1    5    3
 -0.004511567970194519    6    1    5    4
 0.00800071157006782    6    1    5    5
 0.06506004602676235    6    1    6    1
 0.002732448086678128    6    2    1    1
 -0.000466980076897273    6    2    2    1
 0.0006906245431492953    6    2    2    2
 0.01471094321022116    6    2    3    1
 -0.002308281884592885    6    2    3    2
 0.003614264835706767    6    2    3    3
 0.006108509088578374    6    2    4    1
 0.06055920121276959    6    2    4    2
 -0.005905521805800806    6    2    4    3
 -0.0001083772095304814    6    2    4    4
 0.00197295262392806    6    2    5    1
 -0.00917351242429648    6    2    5    2
 -0.004164581691610171    6    2    5    3
 -0.01123618189477346    6    2    5    4
 -0.001452949388067197    6    2    5    5
 -0.003073522080687423    6    2    6    1
 0.06603526906603971    6    2    6    2
 0.0022187839872224    6    3    1    1
 0.003706472799877805    6    3    2    1
 -0.004435875063698257    6    3    2    2
 -0.0002505686066844895    6    3    3    1
 0.002100184229029317    6    3    3    2
 0.000650335489714387    6    3    3    3
 0.002491942956112011    6    3    4    1
 -0.006097615437031073    6    3    4    2
 -0.01349192195805961    6    3    4    3
 -0.002638329647478128    6    3    4    4
 0.005165004513616302    6    3    5    1
 -0.002797002387721512    6    3    5    2
 0.003244335371743191    6    3    5    3
 -0.001616179427320546    6    3    5    4
 -0.001990282823294821    6    3    5    5
 -0.001634115023368161    6    3    6    1
 -0.004105702472056855    6    3    6    2
 0.01832608495099443    6    3    6    3
 -0.1609163445894011    6    4    1    1
 0.006544084590937376    6    4    2    1
 0.1511441013813218    6    4    2    2
 0.006919325115039602    6    4    3    1
 -0.01440953485132392    6    4    3    2
 -0.1304915397363528    6    4    3    3
 -0.009303067499889987    6    4    4    1
 -0.002163916202377077    6    4    4    2
 -0.005221263061009048    6    4    4    3
 0.003730937180803721    6    4    4    4
 -0.04373182637176862    6    4    5    1
 -0.05313422564768629    6    4    5    2
 -0.02102295704158647    6    4    5    3
 0.01948677888617265    6    4    5    4
 0.05481687368110633    6    4    5    5
 -0.001598348324333372    6    4    6    1
 -0.004060301771532717    6    4    6    2
 -0.002337068262009771    6    4    6    3
 0.1725673040732967    6    4    6    4
 0.02146597128068701    6    5    1    1
 0.002699766419111671    6    5    2    1
 -0.02247014337220337    6    5    2    2
 0.004375298293993605    6    5    3    1
 0.0008949647457566833    6    5    3    2
 0.01643518137487049    6    5    3    3
 -0.00324394734128063    6    5    4    1
 -0.01067340694562579    6    5    4    2
 -0.001005431533400876    6    5    4    3
 0.001909618186021259    6    5    4    4
 0.01161796613830183    6    5    5    1
 -0.0004913376497228836    6    5    5    2
 0.00378345080041269    6    5    5    3
 0.003633605106752855    6    5    5    4
 -0.01034361782154687    6    5    5    5
 -4.866505065458999e-05    6    5    6    1
 -0.003070591913590733    6    5    6    2
 0.002274300559648947    6    5    6    3
 -0.02037430846602388    6    5    6    4
 0.02293103130687268    6    5    6    5
 0.4795436391395239    6    6    1    1
 -0.01269116390492973    6    6    2    1
 0.4882703240877593    6    6    2    2
 -0.003280434779904304    6    6    3    1
 -0.007740145118799429    6    6    3    2
 0.4514687953627862    6    6    3    3
 -0.001471411096751194    6    6    4    1
 0.001054635894568291    6    6    4    2
 -0.002641835444428239    6    6    4    3
 0.4832511729217048    6    6    4    4
 -0.02131763789184928    6    6    5    1
 0.02061448610164295    6    6    5    2
 -0.0008434044868717889    6    6    5    3
 -0.001464924110690718    6    6    5    4
 0.4667367800890926    6    6    5    5
 0.001195610218485159    6    6    6    1
 -0.001673906013465156    6    6    6    2
 -0.002232311277470225    6    6    6    3
 0.001392888736013167    6    6    6    4
 -0.001845293631197999    6    6    6    5
 0.4839731617665047    6    6    6    6
 0.03191143998764417    7    1    1    1
 0.01768761005342773    7    1    2    1
 -0.06073957060944971    7    1    2    2
 0.003683101203196529    7    1    3    1
 0.004871934616625967    7    1    3    2
 0.01415676532881359    7    1    3    3
 0.00882519581364447    7    1    4    1
 0.0004965133231263619    7    1    4    2
 0.005923604000659511    7    1    4    3
 -0.01863917106187375    7    1    4    4
 0.04748867345273278    7    1    5    1
 -0.0007084194245987789    7    1    5    2
 0.006027506348446069    7    1    5    3
 -0.004540110135885893    7    1    5    4
 -0.03092066944252421    7    1    5    5
 -0.00564705497166475    7    1    6    1
 3.878656763278597e-05    7    1    6    2
 0.004899798245782639    7    1    6    3
 -0.03417847845309954    7    1    6    4
 0.00611431235914675    7    1    6    5
 -0.01989633303717411    7    1    6    6
 0.04524830411992881    7    1    7    1
 0.06906935635849507    7    2    1    1
 -0.01838192051977793    7    2    2    1
 -0.03077462955578061    7    2    2    2
 -0.004243437335008363    7    2    3    1
 -0.002470939251259779    7    2    3    2
 0.0616610660694978    7    2    3    3
 0.01253668125348871    7    2    4    1
 -0.006944059807471549    7    2    4    2
 -0.001810012478562763    7    2    4    3
 0.01561028463572295    7    2    4    4
 -1.073687190781158e-05    7    2    5    1
 -0.009634513035782768    7    2    5    2
 0.01184624624501355    7    2    5    3
 -0.006230151839441599    7    2    5    4
 0.01614988740557327    7    2    5    5
 -0.009809318407425641    7    2    6    1
 0.00659340549893742    7    2    6    2
 -0.004044379880860863    7    2    6    3
 -0.04612640012424017    7    2    6    4
 0.007538036624978129    7    2    6    5
 0.01787624689206791    7    2    6    6
 0.003169797535903389    7    2    7    1
 0.1165764099773551    7    2    7    2
 0.01376556318491887    7    3    1    1
 -0.0002561180322205255    7    3    2    1
 -0.01585555575012207    7    3    2    2
 0.002377235581005529    7    3    3    1
 0.005981414377612479    7    3    3    2
 0.01400367214705609    7    3    3    3
 0.001661982582769699    7    3    4    1
 -0.004140419669999612    7    3    4    2
 0.002662105598331712    7    3    4    3
 -0.0009343312176876177    7    3    4    4
 0.004613606476517916    7    3    5    1
 0.00987814108430617    7    3    5    2
 0.01132214790545732    7    3    5    3
 -0.001080858879975661    7    3    5    4
 -0.005111434490194325    7    3    5    5
 0.003119827674551086    7    3    6    1
 -0.005997481231189001    7    3    6    2
 -0.0005676160529706186    7    3    6    3
 -0.01330424551948222    7    3    6    4
 0.0009843922608511219    7    3    6    5
 -0.001401298449625134    7    3    6    6
 0.003723307524729315    7    3    7    1
 0.0001327770746999496    7    3    7    2
 0.01176179491145388    7    3    7    3
 0.0170197990972017    7    4    1    1
 0.002691268089302381    7    4    2    1
 -0.01606231338670897    7    4    2    2
 0.004366072253976845    7    4    3    1
 0.0005157688860922041    7    4    3    2
 0.01208450674214556    7    4    3    3
 0.001309267705294486    7    4    4    1
 -0.00462064256147339    7    4    4    2
 0.00283951028734305    7    4    4    3
 -0.0005016227254146294    7    4    4    4
 0.007105887463549795    7    4    5    1
 0.004398301324820502    7    4    5    2
 0.001851360567147478    7    4    5    3
 -0.0007640086155868059    7    4    5    4
 -0.007762003393284265    7    4    5    5
 -0.003359060729612413    7    4    6    1
 -0.009022961713636077    7    4    6    2
 -0.0009018662231326905    7    4    6    3
 -0.015328738988309    7    4    6    4
 -0.005075647600763167    7    4    6    5
 0.00192336918080239    7    4    6    6
 0.008261885196313073    7    4    7    1
 -0.002073379061329712    7    4    7    2
 0.001349596149951232    7    4    7    3
 0.02124516893617289    7    4    7    4
 0.1008929631777832    7    5    1    1
 -0.005468693074880553    7    5    2    1
 -0.05864881562478504    7    5    2    2
 -0.002868249252307999    7    5    3    1
 0.008752012658754039    7    5    3    2
 0.08351064763369641    7    5    3    3
 0.004492179830540968    7    5    4    1
 0.0007711327948284506    7    5    4    2
 0.002480245522693592    7    5    4    3
 0.01121571149741324    7    5    4    4
 0.01976201227472358    7    5    5    1
 0.03220266742206158    7    5    5    2
 0.01124568971279476    7    5    5    3
 -0.01020973912171327    7    5    5    4
 -0.01801256075387702    7    5    5    5
 0.000502984463147714    7    5    6    1
 0.002226521615255533    7    5    6    2
 0.00062631811536151    7    5    6    3
 -0.07046463749470705    7    5    6    4
 0.01091567149974305    7    5    6    5
 0.01196795625410534    7    5    6    6
 0.01334115941979596    7    5    7    1
 0.02542811939827974    7    5    7    2
 0.006257830163439709    7    5    7    3
 0.008869393922906211    7    5    7    4
 0.06583101963431427    7    5    7    5
 -0.01491774865398538    7    6    1    1
 -0.001766352810124999    7    6    2    1
 0.01435624001097929    7    6    2    2
 0.004843798981108229    7    6    3    1
 -0.003784687067512069    7    6    3    2
 -0.01165694811793787    7    6    3    3
 -0.003533112484083399    7    6    4    1
 -0.008402338315592181    7    6    4    2
 -0.001277701184261636    7    6    4    3
 -0.001623303466038814    7    6    4    4
 -0.005517063665840166    7    6    5    1
 -0.003057720722518985    7    6    5    2
 -0.00183637646322034    7    6    5    3
 -0.00554512867807085    7    6    5    4
 0.007469496182137586    7    6    5    5
 -0.001034075163148702    7    6    6    1
 -0.002984258351115681    7    6    6    2
 -0.001655944234632945    7    6    6    3
 0.01385010777720988    7    6    6    4
 -0.000710893504269687    7    6    6    5
 0.001705653063850513    7    6    6    6
 -0.008000198895713418    7    6    7    1
 0.001195637847064405    7    6    7    2
 -0.001880560440939706    7    6    7    3
 0.00662320965336648    7    6    7    4
 -0.008141817098096733    7    6    7    5
 0.02040469982114708    7    6    7    6
 0.4120570417122885    7    7    1    1
 -0.01067560124049422    7    7    2    1
 0.5830248707294446    7    7    2    2
 0.0002093768529031028    7    7    3    1
 -0.0134397528289117    7    7    3    2
 0.3930641392978195    7    7    3    3
 0.003031812680169044    7    7    4    1
 0.001662395263152019    7    7    4    2
 -0.005628107401755473    7    7    4    3
 0.4672878849851928    7    7    4    4
 -0.04402231899001072    7    7    5    1
 0.00789283129887256    7    7    5    2
 -0.01148462585524862    7    7    5    3
 0.01268770859516965    7    7    5    4
 0.5137488939652558    7    7    5    5
 -0.007819475633112841    7    7    6    1
 0.0002127673440171954    7    7    6    2
 -0.002676926090067638    7    7    6    3
 0.07097102658491691    7    7    6    4
 -0.01252568558149121    7    7    6    5
 0.4642935366147378    7    7    6    6
 -0.04240628896019655    7    7    7    1
 -0.01874836309610772    7    7    7    2
 -0.009059306762726422    7    7    7    3
 -0.009663271611452083    7    7    7    4
 -0.02792969335309103    7    7    7    5
 0.009508583505781543    7    7    7    6
 0.5622100603001715    7    7    7    7
 -0.02465932532833422    8    1    1    1
 0.02027831343061967    8    1    2    1
 0.00800008045882418    8    1    2    2
 -0.01221729728185613    8    1    3    1
 -0.0003539096137246753    8    1    3    2
 -0.04274480844589187    8    1    3    3
 0.001857139072704671    8    1    4    1
 -0.00313518913802544    8    1    4    2
 0.003135373740508094    8    1    4    3
 -0.01778814182452649    8    1    4    4
 0.03523899452278473    8    1    5    1
 -0.01692520185050963    8    1    5    2
 -0.004385441080803973    8    1    5    3
 0.001007873633793492    8    1    5    4
 5.319724522656281e-05    8    1    5    5
 -0.003427719487049063    8    1    6    1
 -0.002744861932673993    8    1    6    2
 0.00386302401830343    8    1    6    3
 0.02755961964121817    8    1    6    4
 -0.001534281204666752    8    1    6    5
 -0.01923061153786807    8    1    6    6
 0.03384278901045351    8    1    7    1
 -0.01478950819296776    8    1    7    2
 -0.003259999323851778    8    1    7    3
 0.0007599992057512053    8    1    7    4
 -0.008972016424934379    8    1    7    5
 -0.001356583014571405    8    1    7    6
 0.0006742358057625483    8    1    7    7
 0.06111383769984805    8    1    8    1
 0.01527699558754213    8    2    1    1
 0.01739849956498662    8    2    2    1
 -0.04052664350847412    8    2    2    2
 -0.0008581416246474899    8    2    3    1
 0.01557073755100655    8    2    3    2
 0.008015668755635984    8    2    3    3
 0.001509025249892996    8    2    4    1
 -0.002958919185873668    8    2    4    2
 0.005598490879603435    8    2    4    3
 -0.02012463404034029    8    2    4    4
 0.0128112479725307    8    2    5    1
 -0.03453920791707348    8    2    5    2
 0.004542077209545605    8    2    5    3
 -0.005553919071672616    8    2    5    4
 -0.02087551393275626    8    2    5    5
 -0.0002310899150288745    8    2    6    1
 0.002351153057994632    8    2    6    2
 0.004364712113679164    8    2    6    3
 -0.02970619640452781    8    2    6    4
 0.008296218195287553    8    2    6    5
 -0.02125433971764862    8    2    6    6
 0.0104086403827782    8    2    7    1
 -0.03224866649255494    8    2    7    2
 0.002354756896826244    8    2    7    3
 0.007667527082369759    8    2    7    4
 0.02375757551142065    8    2    7    5
 -0.005337113291697163    8    2    7    6
 -0.0277057191647612    8    2    7    7
 -0.001769924978707514    8    2    8    1
 0.07254978735973042    8    2    8    2
 -0.0228295913266826    8    3    1    1
 -0.001878880919497887    8    3    2    1
 0.04524804649193989    8    3    2    2
 -0.02729844532589233    8    3    3    1
 0.001729339735346214    8    3    3    2
 -0.02359775703101622    8    3    3    3
 -0.0007162988529513026    8    3    4    1
 -0.001793176889763524    8    3    4    2
 -0.001501852950347726    8    3    4    3
 0.01061310686295568    8    3    4    4
 -0.01318364982550301    8    3    5    1
 -0.006502438008901016    8    3    5    2
 0.004023283711793929    8    3    5    3
 0.002817254364367375    8    3    5    4
 0.02695638309492536    8    3    5    5
 0.0009615656017439504    8    3    6    1
 -0.002766718954626462    8    3    6    2
 -0.001287545002100382    8    3    6    3
 0.0300977296688954    8    3    6    4
 -0.006107424791880987    8    3    6    5
 0.01051598300276162    8    3    6    6
 -0.01015829758466991    8    3    7    1
 -0.005691219840698961    8    3    7    2
 0.005972111931857699    8    3    7    3
 -0.004277901082517761    8    3    7    4
 -0.01221009186202975    8    3    7    5
 0.001604588975821949    8    3    7    6
 0.02980857704362595    8    3    7    7
 0.01068932101798014    8    3    8    1
 -0.009849679451369048    8    3    8    2
 0.03167420477754921    8    3    8    3
 0.005163225319961846    8    4    1    1
 -0.0001984422697805303    8    4    2    1
 -0.01131305916859526    8    4    2    2
 -0.003850177824602161    8    4    3    1
 0.003177751482863104    8    4    3    2
 0.003238710909335974    8    4    3    3
 -0.01265960180652661    8    4    4    1
 -0.01170765126210386    8    4    4    2
 0.001820031287697096    8    4    4    3
 -0.00384763039825138    8    4    4    4
 0.003796060690525953    8    4    5    1
 0.003445719940656847    8    4    5    2
 0.003319152366385116    8    4    5    3
 5.0332314315398e-05    8    4    5    4
 -0.005746357105529038    8    4    5    5
 0.01726962413667291    8    4    6    1
 -0.01750336031720639    8    4    6    2
 0.004033895461833283    8    4    6    3
 -0.006737510381401105    8    4    6    4
 -0.008227287888182187    8    4    6    5
 -0.000961496566864596    8    4    6    6
 0.001896871688489294    8    4    7    1
 0.00387863380125305    8    4    7    2
 0.002344930257225779    8    4    7    3
 0.001017785745027541    8    4    7    4
 0.002521903910300217    8    4    7    5
 -0.009816997758243233    8    4    7    6
 -0.007006327937162508    8    4    7    7
 -0.001206777737398291    8    4    8    1
 -0.0009554078954175609    8    4    8    2
 -0.001070300009850686    8    4    8    3
 0.02528691469823158    8    4    8    4
 0.1184084478784799    8    5    1    1
 -0.005400223373751315    8    5    2    1
 -0.10751882681805    8    5    2    2
 -0.00663922224672849    8    5    3    1
 0.009017848621033565    8    5    3    2
 0.09729724749206145    8    5    3    3
 0.009112648264420618    8    5    4    1
 -0.0005774715025068925    8    5    4    2
 0.003778950494605413    8    5    4    3
 -0.0001180112365405355    8    5    4    4
 0.03498244752858225    8    5    5    1
 0.03032887292895876    8    5    5    2
 0.01957168227488482    8    5    5    3
 -0.01528311700343703    8    5    5    4
 -0.04469597826526831    8    5    5    5
 -0.003013748858758298    8    5    6    1
 0.007134381361940298    8    5    6    2
 0.0003998890052458469    8    5    6    3
 -0.1007169644622837    8    5    6    4
 0.01611172165062521    8    5    6    5
 0.00110278703764808    8    5    6    6
 0.02458026196931129    8    5    7    1
 0.05205579834473052    8    5    7    2
 0.008467244411892984    8    5    7    3
 0.007882911246434719    8    5    7    4
 0.05365387673146046    8    5    7    5
 -0.007191726823001655    8    5    7    6
 -0.04163796292917964    8    5    7    7
 -0.02004733996317302    8    5    8    1
 0.01887309892424157    8    5    8    2
 -0.02433216170289031    8    5    8    3
 0.005053482216566985    8    5    8    4
 0.1057427316252432    8    5    8    5
 -0.007278539539998683    8    6    1    1
 -0.0008374009583595717    8    6    2    1
 0.003926673113983682    8    6    2    2
 -0.002698914671482919    8    6    3    1
 0.001685801105909893    8    6    3    2
 -0.005635995568127638    8    6    3    3
 0.01634464968734464    8    6    4    1
 -0.0169975358708065    8    6    4    2
 0.003720328402447388    8    6    4    3
 -0.0009312802665801771    8    6    4    4
 -0.003682375753005411    8    6    5    1
 0.0011520106705119    8    6    5    2
 0.0006764069322760538    8    6    5    3
 -0.008199939626908003    8    6    5    4
 0.001264430363050433    8    6    5    5
 -0.01312095918314236    8    6    6    1
 -0.0119060617214308    8    6    6    2
 0.001188022724081477    8    6    6    3
 0.005676625296347103    8    6    6    4
 -0.0004454135629575297    8    6    6    5
 -0.0001226401183834078    8    6    6    6
 -0.0017663993890688    8    6    7    1
 0.0001307542647626085    8    6    7    2
 0.001410208771732279    8    6    7    3
 -0.009042824268732302    8    6    7    4
 -0.002074881830803135    8    6    7    5
 0.001738251604325047    8    6    7    6
 0.002664607694202778    8    6    7    7
 0.001135460940886215    8    6    8    1
 -0.004128577451536218    8    6    8    2
 0.001828029365320441    8    6    8    3
 0.0006532704980037847    8    6    8    4
 -0.003843411403842416    8    6    8    5
 0.02478588117716567    8    6    8    6
 0.1119109903473972    8    7    1    1
 -0.005378475689403379    8    7    2    1
 -0.09711757095450779    8    7    2    2
 -0.0044577826400582    8    7    3    1
 0.007409518762857416    8    7    3    2
 0.09245241140257633    8    7    3    3
 0.001399629815437816    8    7    4    1
 0.006366847016752354    8    7    4    2
 0.002624617638465862    8    7    4    3
 0.001984248701336196    8    7    4    4
 0.02890420490036884    8    7    5    1
 0.05332605132814149    8    7    5    2
 0.01228640264182138    8    7    5    3
 -0.009183957893060403    8    7    5    4
 -0.02521812304101459    8    7    5    5
 0.004331686339966205    8    7    6    1
 -0.0004315758151467404    8    7    6    2
 0.001372819664926284    8    7    6    3
 -0.09385163180737802    8    7    6    4
 0.009753746385775896    8    7    6    5
 0.003363984656136648    8    7    6    6
 0.02574483435423661    8    7    7    1
 0.01807899898208958    8    7    7    2
 0.01288125467125609    8    7    7    3
 0.01085618095141014    8    7    7    4
 0.04863486540065363    8    7    7    5
 -0.009753510466973784    8    7    7    6
 -0.05247352126822181    8    7    7    7
 -0.01925370091684184    8    7    8    1
 0.01907031765153529    8    7    8    2
 -0.02279201954334764    8    7    8    3
 0.005018997329933164    8    7    8    4
 0.07445979778216376    8    7    8    5
 -0.004175164952071748    8    7    8    6
 0.0944126468270521    8    7    8    7
 0.5383320148325255    8    8    1    1
 -0.02288135376639401    8    8    2    1
 0.5755952879515309    8    8    2    2
 0.007311911046223882    8    8    3    1
 -0.01290403789443631    8    8    3    2
 0.5069594323541599    8    8    3    3
 -0.00284904434821502    8    8    4    1
 0.003688819876387084    8    8    4    2
 -0.00489128681130385    8    8    4    3
 0.5189912288181989    8    8    4    4
 -0.04131411963457341    8    8    5    1
 0.03488100788871102    8    8    5    2
 -0.007963918551630212    8    8    5    3
 0.007123912683987516    8    8    5    4
 0.5573986025850373    8    8    5    5
 0.001047834800397184    8    8    6    1
 -0.001307214697870475    8    8    6    2
 -0.003284390469762041    8    8    6    3
 0.01123387777961325    8    8    6    4
 -0.00420793083477527    8    8    6    5
 0.5171107413105295    8    8    6    6
 -0.0377432126078463    8    8    7    1
 0.03226664141177209    8    8    7    2
 -0.007033794379354958    8    8    7    3
 -0.001313677847007698    8    8    7    4
 0.02935398708125726    8    8    7    5
 0.002990644545138174    8    8    7    6
 0.5529137600504989    8    8    7    7
 -0.02152390305031354    8    8    8    1
 -0.0274285020734597    8    8    8    2
 0.01695145464138987    8    8    8    3
 -0.004513444668763594    8    8    8    4
 -0.007289243780936574    8    8    8    5
 -0.0003260148001622732    8    8    8    6
 -0.004027306273999881    8    8    8    7
 0.6562901495108385    8    8    8    8
 -0.04872674201874633    9    1    1    1
 -3.327534037458724e-05    9    1    2    1
 -0.02030904291714544    9    1    2    2
 0.0178849225810736    9    1    3    1
 -0.0009826820660860914    9    1    3    2
 -0.04300787861178358    9    1    3    3
 -0.007818510751717474    9    1    4    1
 -0.001525513279762329    9    1    4    2
 0.00030345743108502    9    1    4    3
 -0.030042163207719    9    1    4    4
 -0.003698546362525346    9    1    5    1
 -0.005232013738590894    9    1    5    2
 -0.0008186645772781113    9    1    5    3
 0.002093993721460132    9    1    5    4
 -0.02506512093679476    9    1    5    5
 0.007711565874421132    9    1    6    1
 -0.00153192254186207    9    1    6    2
 -0.0005707807412769189    9    1    6    3
 0.01279823833030132    9    1    6    4
 -0.0007951410422862908    9    1    6    5
 -0.02936371115166615    9    1    6    6
 -0.005182713366857259    9    1    7    1
 -0.002827874717197474    9    1    7    2
 -0.0004379744404442403    9    1    7    3
 -0.001190685726785996    9    1    7    4
 -0.007961770547580843    9    1    7    5
 0.002007926245076251    9    1    7    6
 -0.02548600384220197    9    1    7    7
 -0.004602875750351841    9    1    8    1
 -0.003044031986330139    9    1    8    2
 -0.002979027537429798    9    1    8    3
 0.001755614862197326    9    1    8    4
 -0.009515328619887818    9    1    8    5
 -0.001272127257971369    9    1    8    6
 -0.008544713168698712    9    1    8    7
 -0.036108724684417    9    1    8    8
 0.02235446260654857    9    1    9    1
 -0.01622067028158465    9    2    1    1
 -0.001287368595354939    9    2    2    1
 -0.04494436690279766    9    2    2    2
 0.0004643708116850135    9    2    3    1
 0.001067594219907241    9    2    3    2
 -0.01456941084127977    9    2    3    3
 -0.0002465405353689113    9    2    4    1
 -0.01213855183979276    9    2    4    2
 0.001342683439103577    9    2    4    3