 &FCI NORB=  10,NELEC=10,MS2=0,
  ORBSYM=1,1,1,1,1,1,1,1,1,1,
  ISYM=1,
 &END
 0.6098009161745824    1    1    1    1
 -2.960630872406167e-14    1    1    2    1
 0.49115031628091    1    1    2    2
 0.09719804325950379    1    1    3    1
 1.48377295693114e-13    1    1    3    2
 0.5181993133250756    1    1    3    3
 0.5189299166189421    1    1    4    4
 0.5189299166189416    1    1    5    5
 5.02281322003334e-14    1    1    6    4
 -1.251648524408511e-13    1    1    6    5
 0.4958149615626289    1    1    6    6
 -1.249464128081496e-13    1    1    7    4
 -5.081688108504734e-14    1    1    7    5
 0.4958149615626296    1    1    7    7
 9.174475415485439e-14    1    1    8    1
 -0.08344109882470294    1    1    8    2
 1.376329605839999e-13    1    1    8    3
 0.5345450863095103    1    1    8    8
 4.510276971781552e-14    1    1    9    1
 -0.03845332659017331    1    1    9    2
 -2.98281622383538e-13    1    1    9    3
 -0.1377325061702144    1    1    9    8
 0.4119392783375783    1    1    9    9
 0.06698623437949269    1    1   10    4
 -0.08245685336815912    1    1   10    5
 2.599657482013108e-13    1    1   10    6
 -8.185466193744162e-14    1    1   10    7
 1.103674770153423e-15    1    1   10    8
 0.4630902634355448    1    1   10   10
 -2.958473310082921e-14    2    1    1    1
 0.1265685540546957    2    1    2    1
 -1.082430010153259e-14    2    1    2    2
 5.720261504055246e-14    2    1    3    1
 -0.1134844384672015    2    1    3    2
 7.677278951456756e-14    2    1    3    3
 -3.191659447582956e-14    2    1    4    4
 -1.207286224116921e-15    2    1    5    4
 -3.553684039744875e-14    2    1    5    5
 -0.05171419493152258    2    1    6    4
 0.1286048960694819    2    1    6    5
 6.551554546270488e-14    2    1    6    6
 0.1286048960694821    2    1    7    4
 0.05171419493152259    2    1    7    5
 1.681814409959514e-15    2    1    7    6
 6.474000209619885e-14    2    1    7    7
 -0.06532801534912405    2    1    8    1
 -1.129128800007873e-13    2    1    8    2
 -0.1045321193587736    2    1    8    3
 7.099626875978204e-14    2    1    8    8
 0.006226429197650513    2    1    9    1
 1.623975781595791e-13    2    1    9    2
 0.07591055191675489    2    1    9    3
 -5.582429253559416e-14    2    1    9    8
 -5.550178507974027e-13    2    1    9    9
 -7.06969959258911e-14    2    1   10    4
 8.713208377465059e-14    2    1   10    5
 -0.06679294973853074    2    1   10    6
 0.0206551788404453    2    1   10    7
 -4.149927150103603e-13    2    1   10   10
 0.4911503162809099    2    2    1    1
 -1.080190624447308e-14    2    2    2    1
 0.507470646248932    2    2    2    2
 -0.005854720116442397    2    2    3    1
 4.48507333702941e-14    2    2    3    2
 0.5055856824018624    2    2    3    3
 0.4632569117390656    2    2    4    4
 0.463256911739065    2    2    5    5
 2.546140381864959e-15    2    2    6    4
 -7.230327447871332e-15    2    2    6    5
 0.4732655531860301    2    2    6    6
 -6.808627012883095e-15    2    2    7    4
 -3.508044549294098e-15    2    2    7    5
 0.4732655531860308    2    2    7    7
 -3.395591099963902e-14    2    2    8    1
 -0.01181600695493287    2    2    8    2
 1.261404175556535e-14    2    2    8    3
 0.4670628232924869    2    2    8    8
 1.269510755200209e-13    2    2    9    1
 -0.07247041383624346    2    2    9    2
 -1.943266511247876e-13    2    2    9    3
 -0.09588229008420482    2    2    9    8
 0.4290690950861509    2    2    9    9
 0.06205043170403643    2    2   10    4
 -0.07638111614790327    2    2   10    5
 1.505713922414411e-13    2    2   10    6
 -4.789442429350803e-14    2    2   10    7
 0.4275281777533602    2    2   10   10
 0.09719804325950381    3    1    1    1
 5.720017558566437e-14    3    1    2    1
 -0.005854720116442426    3    1    2    2
 0.08028136475795396    3    1    3    1
 2.796802503132745e-14    3    1    3    2
 0.02113976432964502    3    1    3    3
 0.04470460165341436    3    1    4    4
 0.04470460165341435    3    1    5    5
 7.143130488149185e-15    3    1    6    4
 -1.739656595861616e-14    3    1    6    5
 0.02043007845738595    3    1    6    6
 -1.756814095241199e-14    3    1    7    4
 -6.934990776086281e-15    3    1    7    5
 0.02043007845738591    3    1    7    7
 5.054984208996416e-14    3    1    8    1
 -0.05237522637307528    3    1    8    2
 3.92430771038732e-14    3    1    8    3
 0.06033423667364772    3    1    8    8
 -5.564740833928494e-14    3    1    9    1
 0.02308268941110857    3    1    9    2
 -4.912346571184223e-14    3    1    9    3
 -0.03700519771287458    3    1    9    8
 -0.003411387800909537    3    1    9    9
 0.006396965355466702    3    1   10    4
 -0.007874358652983119    3    1   10    5
 4.987278493830127e-14    3    1   10    6
 -1.556961753534231e-14    3    1   10    7
 0.02992781964145917    3    1   10   10
 1.483663181461176e-13    3    2    1    1
 -0.1134844384672015    3    2    2    1
 4.492109809128841e-14    3    2    2    2
 2.796959712447755e-14    3    2    3    1
 0.1524814599175839    3    2    3    2
 -7.598869450342605e-14    3    2    3    3
 7.673394797173827e-14    3    2    4    4
 1.028799441471495e-15    3    2    5    4
 7.979706305449863e-14    3    2    5    5
 0.04436068410885265    3    2    6    4
 -0.1103178958300403    3    2    6    5
 -3.694229167364171e-14    3    2    6    6
 -0.1103178958300405    3    2    7    4
 -0.04436068410885265    3    2    7    5
 -1.466247913015084e-15    3    2    7    6
 -3.627198368050255e-14    3    2    7    7
 0.01100889594986676    3    2    8    1
 1.950501392344872e-14    3    2    8    2
 0.1047341997743189    3    2    8    3
 1.72928078107093e-14    3    2    8    8
 0.01663404732157028    3    2    9    1
 -1.200314126521482e-13    3    2    9    2
 -0.07128347378087854    3    2    9    3
 2.742107214036282e-14    3    2    9    8
 6.639957680909525e-13    3    2    9    9
 5.039648846892966e-14    3    2   10    4
 -6.212464895814784e-14    3    2   10    5
 0.04989179728963201    3    2   10    6
 -0.01542863430530779    3    2   10    7
 3.95234124833492e-13    3    2   10   10
 0.5181993133250756    3    3    1    1
 7.676698903294477e-14    3    3    2    1
 0.5055856824018623    3    3    2    2
 0.02113976432964503    3    3    3    1
 -7.599731391069731e-14    3    3    3    2
 0.530880404227128    3    3    3    3
 0.4634791252453295    3    3    4    4
 0.463479125245329    3    3    5    5
 -2.115587436138378e-14    3    3    6    4
 5.201373186325409e-14    3    3    6    5
 0.4667587139339633    3    3    6    6
 5.240756830240945e-14    3    3    7    4
 2.034592112842848e-14    3    3    7    5
 0.4667587139339641    3    3    7    7
 1.429672352726286e-14    3    3    8    1
 -0.0116360200724385    3    3    8    2
 -5.209548070705949e-14    3    3    8    3
 0.4922832679737948    3    3    8    8
 6.662281403641002e-14    3    3    9    1
 -0.06924239205859326    3    3    9    2
 -1.72252836994069e-13    3    3    9    3
 -0.1095203435543259    3    3    9    8
 0.4449146705850336    3    3    9    9
 0.06222954755701037    3    3   10    4
 -0.07660159920328616    3    3   10    5
 1.370359759979398e-13    3    3   10    6
 -4.369596445945637e-14    3    3   10    7
 0.4261169528521647    3    3   10   10
 0.07966748860232789    4    1    4    1
 -1.972858307795651e-14    4    1    4    2
 -0.003676098018295118    4    1    4    3
 1.760106175326717e-14    4    1    6    1
 -0.0255239549259382    4    1    6    2
 6.568533718385156e-15    4    1    6    3
 -4.349855052577281e-14    4    1    7    1
 0.06347397605007606    4    1    7    2
 -1.617249053558098e-14    4    1    7    3
 2.427249482135629e-14    4    1    8    4
 0.01339625124965544    4    1    8    6
 -0.03331432505067302    4    1    8    7
 2.1705788479532e-14    4    1    9    4
 -0.001611669014922786    4    1    9    6
 0.004007961961643284    4    1    9    7
 0.01253377549271127    4    1   10    1
 -2.654372676934098e-14    4    1   10    2
 -0.001969573346597706    4    1   10    3
 4.030177999279913e-14    4    1   10    8
 5.011797725960887e-14    4    1   10    9
 -1.974426496297344e-14    4    2    4    1
 0.0514278031509258    4    2    4    2
 -6.206424846707088e-15    4    2    4    3
 -0.01801702685660828    4    2    6    1
 -7.119479877087885e-15    4    2    6    2
 0.01003218993236289    4    2    6    3
 0.04480545176122992    4    2    7    1
 1.741298600727375e-14    4    2    7    2
 -0.02494844491554469    4    2    7    3
 -0.02120316947308256    4    2    8    4
 5.552856622865338e-15    4    2    8    6
 -1.373714645725235e-14    4    2    8    7
 -0.001722713004263591    4    2    9    4
 -1.054898559455474e-14    4    2    9    6
 2.626489588428323e-14    4    2    9    7
 -2.679777613080579e-14    4    2   10    1
 0.01459456178435048    4    2   10    2
 -4.785262414186366e-15    4    2   10    3
 -0.009060403247267234    4    2   10    8
 -0.008440585536685041    4    2   10    9
 -0.003676098018295115    4    3    4    1
 -6.212563085080607e-15    4    3    4    2
 0.02046640819240762    4    3    4    3
 4.263760254876491e-15    4    3    6    1
 0.007828071724934228    4    3    6    2
 -6.179998321560821e-15    4    3    6    3
 -1.044620111696539e-14    4    3    7    1
 -0.01946715697581056    4    3    7    2
 1.530224133919457e-14    4    3    7    3
 1.272858856212139e-14    4    3    8    4
 0.003184415293856641    4    3    8    6
 -0.007919129330946443    4    3    8    7
 -1.267537625830898e-14    4    3    9    4
 -0.002508822840156796    4    3    9    6
 0.00623903941736581    4    3    9    7
 -0.001566848387641782    4    3   10    1
 -1.599524340336613e-15    4    3   10    2
 0.004953091773832865    4    3   10    3
 5.658409388205868e-15    4    3   10    8
 -3.683812694992017e-14    4    3   10    9
 0.5189299166189423    4    4    1    1
 -3.192815365755856e-14    4    4    2    1
 0.4632569117390656    4    4    2    2
 0.04470460165341434    4    4    3    1
 7.672327160504628e-14    4    4    3    2
 0.4634791252453293    4    4    3    3
 0.4930848739553439    4    4    4    4
 0.4562087656807715    4    4    5    5
 3.569703126843349e-14    4    4    6    4
 -7.468537507188122e-14    4    4    6    5
 0.4515223062728969    4    4    6    6
 -8.874666409738885e-14    4    4    7    4
 -3.084425076460562e-14    4    4    7    5
 -0.0120738754644732    4    4    7    6
 0.4766929864590969    4    4    7    7
 6.021281752855312e-14    4    4    8    1
 -0.05648399682255616    4    4    8    2
 8.24741485576576e-14    4    4    8    3
 0.4653078271787435    4    4    8    8
 6.777505684826027e-14    4    4    9    1
 -0.04297391080318613    4    4    9    2
 -2.17548649738214e-13    4    4    9    3
 -0.10191248057902    4    4    9    8
 0.3841257228303035    4    4    9    9
 0.05606881667586825    4    4   10    4
 -0.06487421131023405    4    4   10    5
 1.925944958527069e-13    4    4   10    6
 -7.080509850578443e-14    4    4   10    7
 0.4296054967430669    4    4   10   10
 0.07966748860232785    5    1    5    1
 -2.12755636146849e-14    5    1    5    2
 -0.003676098018295066    5    1    5    3
 -4.330668695145487e-14    5    1    6    1
 0.06347397605007597    5    1    6    2
 -1.602170035398634e-14    5    1    6    3
 -1.736378068303255e-14    5    1    7    1
 0.0255239549259382    5    1    7    2
 -6.356077749488669e-15    5    1    7    3
 2.510535182520535e-14    5    1    8    5
 -0.03331432505067301    5    1    8    6
 -0.01339625124965544    5    1    8    7
 2.16349290912965e-14    5    1    9    5
 0.004007961961643321    5    1    9    6
 0.001611669014922769    5    1    9    7
 -0.0154284786646899    5    1   10    1
 3.260716302678592e-14    5    1   10    2
 0.002424450667254686    5    1   10    3
 -4.950668607097837e-14    5    1   10    8
 -6.168779679779912e-14    5    1   10    9
 -2.125267178522094e-14    5    2    5    1
 0.05142780315092572    5    2    5    2
 -5.625798722278967e-15    5    2    5    3
 0.04480545176122986    5    2    6    1
 1.711932752484003e-14    5    2    6    2
 -0.02494844491554461    5    2    6    3
 0.01801702685660827    5    2    7    1
 6.700316667025754e-15    5    2    7    2
 -0.01003218993236287    5    2    7    3
 -0.02120316947308254    5    2    8    5
 -1.369702420060681e-14    5    2    8    6
 -5.46828207714789e-15    5    2    8    7
 -0.001722713004263554    5    2    9    5
 2.627836370814457e-14    5    2    9    6
 1.058114912962788e-14    5    2    9    7
 3.295601062278193e-14    5    2   10    1
 -0.01796520810838629    5    2   10    2
 5.883135043425665e-15    5    2   10    3
 0.01115292341683003    5    2   10    8
 0.01038995743508929    5    2   10    9
 -0.003676098018295064    5    3    5    1
 -5.615676040921564e-15    5    3    5    2
 0.02046640819240759    5    3    5    3
 -1.030002100607189e-14    5    3    6    1
 -0.01946715697581048    5    3    6    2
 1.523335061943158e-14    5    3    6    3
 -4.062519406524657e-15    5    3    7    1
 -0.007828071724934211    5    3    7    2
 6.077327366729645e-15    5    3    7    3
 1.28792714882732e-14    5    3    8    5
 -0.007919129330946432    5    3    8    6
 -0.003184415293856642    5    3    8    7
 -1.286025051640965e-14    5    3    9    5
 0.006239039417365794    5    3    9    6
 0.002508822840156803    5    3    9    7
 0.001928715488289442    5    3   10    1
 1.932690827881716e-15    5    3   10    2
 -0.006097019274142162    5    3   10    3
 -6.933510033759001e-15    5    3   10    8
 4.53935933980576e-14    5    3   10    9
 -1.215765719436926e-15    5    4    2    1
 1.023597896721888e-15    5    4    3    2
 0.01843805413728596    5    4    5    4
 -6.597647437576063e-15    5    4    6    4
 1.745407155480085e-15    5    4    6    5
 -0.01207387546447311    5    4    6    6
 -4.155541733405466e-15    5    4    7    4
 -8.038405349881407e-15    5    4    7    5
 0.01258534009309974    5    4    7    6
 0.01207387546447313    5    4    7    7
 -0.002071911294368608    5    4   10    4
 0.001683177685163613    5    4   10    5
 -8.01277826218311e-15    5    4   10    6
 4.536419627259019e-15    5    4   10    7
 -0.01429378747886665    5    4   10   10
 0.5189299166189417    5    5    1    1
 -3.553849492969692e-14    5    5    2    1
 0.4632569117390651    5    5    2    2
 0.04470460165341435    5    5    3    1
 7.983834102750902e-14    5    5    3    2
 0.4634791252453289    5    5    3    3
 0.4562087656807716    5    5    4    4
 0.4930848739553429    5    5    5    5
 3.101913257502753e-14    5    5    6    4
 -9.332714722559698e-14    5    5    6    5
 0.4766929864590958    5    5    6    6
 -7.811457101818131e-14    5    5    7    4
 -3.800735767778285e-14    5    5    7    5
 0.01207387546447301    5    5    7    6
 0.4515223062728971    5    5    7    7
 6.22556241093265e-14    5    5    8    1
 -0.05648399682255613    5    5    8    2
 8.517820177812092e-14    5    5    8    3
 0.4653078271787433    5    5    8    8
 6.749369247841771e-14    5    5    9    1
 -0.04297391080318606    5    5    9    2
 -2.197735393573346e-13    5    5    9    3
 -0.10191248057902    5    5    9    8
 0.3841257228303032    5    5    9    9
 0.05270246130554106    5    5   10    4
 -0.06901803389897128    5    5   10    5
 2.040226338838758e-13    5    5   10    6
 -5.412079238811904e-14    5    5   10    7
 0.4355884901047952    5    5   10   10
 1.759619596138338e-14    6    1    4    1
 -0.01801702685660828    6    1    4    2
 4.264496781720122e-15    6    1    4    3
 -4.329613261114284e-14    6    1    5    1
 0.04480545176122987    6    1    5    2
 -1.029980754298363e-14    6    1    5    3
 0.04759394430556585    6    1    6    1
 2.017519062327809e-15    6    1    6    2
 -0.02016990531991768    6    1    6    3
 0.009581961107438291    6    1    8    4
 -0.02382879814711718    6    1    8    5
 -0.0004220289369033637    6    1    9    4
 0.001049518176598123    6    1    9    5
 2.250370029210913e-14    6    1    9    6
 5.080301834640328e-14    6    1   10    1
 -0.02123460014250975    6    1   10    2
 1.241517165952496e-14    6    1   10    3
 0.01618755754815007    6    1   10    8
 0.008383662594589125    6    1   10    9
 -0.0255239549259382    6    2    4    1
 -7.12399182912512e-15    6    2    4    2
 0.00782807172493423    6    2    4    3
 0.06347397605007597    6    2    5    1
 1.712088779263265e-14    6    2    5    2
 -0.01946715697581048    6    2    5    3
 2.015125144661609e-15    6    2    6    1
 0.07487218342320759    6    2    6    2
 -3.984164446893918e-14    6    2    6    3
 3.398052238895444e-15    6    2    8    4
 -8.295230821686594e-15    6    2    8    5
 -0.02274971804669689    6    2    8    6
 -1.119352006917484e-14    6    2    9    4
 2.791110441727196e-14    6    2    9    5
 -0.00180897454679817    6    2    9    6
 -0.01953744094370461    6    2   10    1
 1.799365327524839e-14    6    2   10    2
 0.008265557531859511    6    2   10    3
 -3.3844164738406e-14    6    2   10    8
 -1.055866548707596e-13    6    2   10    9
 6.568518134620899e-15    6    3    4    1
 0.01003218993236289    6    3    4    2
 -6.177516694776838e-15    6    3    4    3
 -1.601824920971912e-14    6    3    5    1
 -0.02494844491554461    6    3    5    2
 1.522858163798968e-14    6    3    5    3
 -0.02016990531991768    6    3    6    1
 -3.983953796504187e-14    6    3    6    2
 0.0260921181848973    6    3    6    3
 0.001003583319202453    6    3    8    4
 -0.002495750511711557    6    3    8    5
 7.950556174789875e-15    6    3    8    6
 -0.002288120442111274    6    3    9    4
 0.005690188004315381    6    3    9    5
 -9.670710684073908e-15    6    3    9    6
 1.490128577768028e-15    6    3   10    1
 0.009765843645226212    6    3   10    2
 -2.099540405873427e-15    6    3   10    3
 -0.0005300541115016147    6    3   10    8
 -0.01492174347408216    6    3   10    9
 5.022309650023796e-14    6    4    1    1
 -0.05171419493152257    6    4    2    1
 2.566991463134669e-15    6    4    2    2
 7.143960604110196e-15    6    4    3    1
 0.04436068410885263    6    4    3    2
 -2.119462660156664e-14    6    4    3    3
 3.568277739799709e-14    6    4    4    4
 -6.603136819879202e-15    6    4    5    4
 3.104997812683474e-14    6    4    5    5
 0.03714298626687768    6    4    6    4
 -0.05453261965504573    6    4    6    5
 -1.982355929798854e-14    6    4    6    6
 -0.05453261965504581    6    4    7    4
 -0.006713983555546203    6    4    7    5
 4.203838069750249e-15    6    4    7    6
 -1.514070037964346e-14    6    4    7    7
 0.02767896013493705    6    4    8    1
 2.539722339484925e-14    6    4    8    2
 0.04009796410321349    6    4    8    3
 -4.499501794813e-15    6    4    8    8
 -0.003014449506885304    6    4    9    1
 -5.50183228859089e-14    6    4    9    2
 -0.02870314454122649    6    4    9    3
 1.030801035726539e-14    6    4    9    8
 2.206685897378213e-13    6    4    9    9
 4.155524369230047e-14    6    4   10    4
 -4.218223484403353e-14    6    4   10    5
 0.03054912174271329    6    4   10    6
 -0.01268878477249938    6    4   10    7
 2.257933559091443e-13    6    4   10   10
 -1.252082985180268e-13    6    5    1    1
 0.1286048960694819    6    5    2    1
 -7.258965656399276e-15    6    5    2    2
 -1.739260065339801e-14    6    5    3    1
 -0.1103178958300403    6    5    3    2
 5.198898815196096e-14    6    5    3    3
 -7.473711184429951e-14    6    5    4    4
 1.757125803365789e-15    6    5    5    4
 -9.327841233794376e-14    6    5    5    5
 -0.05453261965504573    6    5    6    4
 0.1508283669958488    6    5    6    5
 4.846882444009548e-14    6    5    6    6
 0.1203993642845176    6    5    7    4
 0.05453261965504574    6    5    7    5
 3.739359082793881e-15    6    5    7    6
 3.812355704561898e-14    6    5    7    7
 -0.0688331278516166    6    5    8    1
 -6.32035074028425e-14    6    5    8    2
 -0.09971719588635117    6    5    8    3
 1.048930763941022e-14    6    5    8    8
 0.00749645171993923    6    5    9    1
 1.372612709889768e-13    6    5    9    2
 0.07138010995781095    6    5    9    3
 -2.557794951475103e-14    6    5    9    8
 -5.49703376350949e-13    6    5    9    9
 -7.616925058756161e-14    6    5   10    4
 1.076499390388445e-13    6    5   10    5
 -0.07155372035810886    6    5   10    6
 0.01727152882547862    6    5   10    7
 -4.992721053210733e-13    6    5   10   10
 0.4958149615626288    6    6    1    1
 6.556266037184684e-14    6    6    2    1
 0.4732655531860301    6    6    2    2
 0.02043007845738595    6    6    3    1
 -3.69652527954387e-14    6    6    3    2
 0.4667587139339633    6    6    3    3
 0.4515223062728969    6    6    4    4
 -0.01207387546447311    6    6    5    4
 0.4766929864590958    6    6    5    5
 -1.986041539558947e-14    6    6    6    4
 4.845429613098418e-14    6    6    6    5
 0.4836135655844354    6    6    6    6
 3.892269536190374e-14    6    6    7    4
 1.54116086212297e-14    6    6    7    5
 0.4464618816042853    6    6    7    7
 -9.436837144294753e-15    6    6    8    1
 -0.04054167926379651    6    6    8    2
 -1.942468726129473e-14    6    6    8    3
 0.4561581735401443    6    6    8    8
 8.650591946893829e-14    6    6    9    1
 -0.0508602119098604    6    6    9    2
 -1.487536829029021e-13    6    6    9    3
 -0.09455804904224259    6    6    9    8
 0.3944660272780515    6    6    9    9
 0.05824450533924393    6    6   10    4
 -0.07551368188778919    6    6   10    5
 1.380582828259915e-13    6    6   10    6
 -4.080316080909278e-14    6    6   10    7
 0.4388428228599323    6    6   10   10
 -4.349289604360618e-14    7    1    4    1
 0.0448054517612299    7    1    4    2
 -1.044585892644026e-14    7    1    4    3
 -1.735685577629055e-14    7    1    5    1
 0.01801702685660828    7    1    5    2
 -4.062230113077177e-15    7    1    5    3
 0.04759394430556591    7    1    7    1
 1.676804972726455e-15    7    1    7    2
 -0.02016990531991775    7    1    7    3
 -0.02382879814711717    7    1    8    4
 -0.0095819611074383    7    1    8    5
 0.001049518176598107    7    1    9    4
 0.0004220289369033475    7    1    9    5
 2.248855534301222e-14    7    1    9    7
 -1.600334119625249e-14    7    1   10    1
 0.006566628143626764    7    1   10    2
 -3.786176592835784e-15    7    1   10    3
 -0.005005871090525564    7    1   10    8
 -0.002592579769377886    7    1   10    9
 0.06347397605007606    7    2    4    1
 1.741507136928611e-14    7    2    4    2
 -0.01946715697581056    7    2    4    3
 0.02552395492593821    7    2    5    1
 6.688438916479194e-15    7    2    5    2
 -0.007828071724934216    7    2    5    3
 1.67463168874106e-15    7    2    7    1
 0.07487218342320774    7    2    7    2
 -3.972274879934406e-14    7    2    7    3
 -8.373293378105551e-15    7    2    8    4
 -3.284807321979333e-15    7    2    8    5
 -0.02274971804669688    7    2    8    7
 2.787833440660858e-14    7    2    9    4
 1.123927340085373e-14    7    2    9    5
 -0.001808974546798238    7    2    9    7
 0.006041795404404226    7    2   10    1
 -5.918435594834819e-15    7    2   10    2
 -0.002556056735102722    7    2   10    3
 1.06870399064401e-14    7    2   10    8
 3.283153913666292e-14    7    2   10    9
 -1.617903165603979e-14    7    3    4    1
 -0.02494844491554469    7    3    4    2
 1.530729492370675e-14    7    3    4    3
 -6.358146541117071e-15    7    3    5    1
 -0.01003218993236287    7    3    5    2
 6.075350212079282e-15    7    3    5    3
 -0.02016990531991774    7    3    7    1
 -3.97242928733644e-14    7    3    7    2
 0.02609211818489738    7    3    7    3
 -0.002495750511711554    7    3    8    4
 -0.001003583319202462    7    3    8    5
 7.983475263251966e-15    7    3    8    7
 0.005690188004315391    7    3    9    4
 0.002288120442111279    7    3    9    5
 -9.69131730161471e-15    7    3    9    7
 -0.003020008066863544    7    3   10    2
 0.0001639149417870784    7    3   10    8
 0.00461442833824444    7    3   10    9
 -1.249459824521672e-13    7    4    1    1
 0.1286048960694821    7    4    2    1
 -6.764450831970718e-15    7    4    2    2
 -1.757481676306136e-14    7    4    3    1
 -0.1103178958300405    7    4    3    2
 5.236753093389656e-14    7    4    3    3
 -8.879977645131348e-14    7    4    4    4
 -4.148726718070095e-15    7    4    5    4
 -7.809627510652062e-14    7    4    5    5
 -0.0545326196550458    7    4    6    4
 0.1203993642845176    7    4    6    5
 3.893201950058711e-14    7    4    6    6
 0.1508283669958493    7    4    7    4
 0.05453261965504579    7    4    7    5
 4.805263988365976e-14    7    4    7    7
 -0.06883312785161667    7    4    8    1
 -6.31847316643869e-14    7    4    8    2
 -0.09971719588635129    7    4    8    3
 1.07285288761311e-14    7    4    8    8
 0.007496451719939245    7    4    9    1
 1.370477977160913e-13    7    4    9    2
 0.07138010995781112    7    4    9    3
 -2.571252463176514e-14    7    4    9    8
 -5.494009381549342e-13    7    4    9    9
 -8.221532602528366e-14    7    4   10    4
 8.757484314277347e-14    7    4   10    5
 -0.06289503932396713    7    4   10    6
 0.02430566138666935    7    4   10    7
 -4.529532673415437e-13    7    4   10   10
 -5.084186610511651e-14    7    5    1    1
 0.05171419493152256    7    5    2    1
 -3.50838623236469e-15    7    5    2    2
 -6.93632906447024e-15    7    5    3    1
 -0.04436068410885263    7    5    3    2
 2.035406063220562e-14    7    5    3    3
 -3.081055071176616e-14    7    5    4    4
 -8.039338780189281e-15    7    5    5    4
 -3.800762872832597e-14    7    5    5    5
 -0.006713983555546205    7    5    6    4
 0.05453261965504572    7    5    6    5
 1.543741940919843e-14    7    5    6    6
 0.05453261965504581    7    5    7    4
 0.03714298626687768    7    5    7    5
 5.517836892694056e-15    7    5    7    6
 1.853444969116685e-14    7    5    7    7
 -0.02767896013493706    7    5    8    1
 -2.542976787545651e-14    7    5    8    2
 -0.04009796410321347    7    5    8    3
 3.721054602243655e-15    7    5    8    8
 0.003014449506885295    7    5    9    1
 5.529490034437292e-14    7    5    9    2
 0.02870314454122654    7    5    9    3
 -1.017582806376682e-14    7    5    9    8
 -2.215308286205447e-13    7    5    9    9
 -2.213023287775287e-14    7    5   10    4
 3.62931772918758e-14    7    5   10    5
 -0.02351498918152264    7    5   10    6
 0.004030103738357531    7    5   10    7
 -1.570759920245003e-13    7    5   10   10
 1.69424267892975e-15    7    6    2    1
 -1.473186107926621e-15    7    6    3    2
 -0.0120738754644732    7    6    4    4
 0.01258534009309974    7    6    5    4
 0.01207387546447303    7    6    5    5
 4.20921164676763e-15    7    6    6    4
 3.744725883547684e-15    7    6    6    5
 5.53040686163131e-15    7    6    7    5
 0.01857584199007538    7    6    7    6
 -1.318974190599677e-15    7    6    8    3
 -0.004249578500558247    7    6   10    4
 -0.0003510284801714911    7    6   10    5
 -2.454389878897491e-15    7    6   10    6
 5.300409887880981e-15    7    6   10    7
 -0.007956694033723236    7    6   10   10
 0.4958149615626296    7    7    1    1
 6.47577902396073e-14    7    7    2    1
 0.4732655531860308    7    7    2    2
 0.02043007845738592    7    7    3    1
 -3.630556370200068e-14    7    7    3    2
 0.4667587139339641    7    7    3    3
 0.476692986459097    7    7    4    4
 0.01207387546447312    7    7    5    4
 0.4515223062728969    7    7    5    5
 -1.509578052838467e-14    7    7    6    4
 3.816391647148976e-14    7    7    6    5
 0.4464618816042853    7    7    6    6
 4.80414319437017e-14    7    7    7    4
 1.85607822514311e-14    7    7    7    5
 0.4836135655844369    7    7    7    7
 -9.042738364417179e-15    7    7    8    1
 -0.04054167926379652    7    7    8    2
 -1.881815912835197e-14    7    7    8    3
 0.4561581735401447    7    7    8    8
 8.64442763624734e-14    7    7    9    1
 -0.05086021190986057    7    7    9    2
 -1.490237990229572e-13    7    7    9    3
 -0.0945580490422428    7    7    9    8
 0.3944660272780521    7    7    9    9
 0.05754244837890114    7    7   10    4
 -0.06701452488667285    7    7   10    5
 1.28370592625336e-13    7    7   10    6
 -4.416358509161411e-14    7    7   10    7
 0.415573689798228    7    7   10   10
 9.173006321541721e-14    8    1    1    1
 -0.06532801534912409    8    1    2    1
 -3.391572775662127e-14    8    1    2    2
 5.055634730299907e-14    8    1    3    1
 0.01100889594986677    8    1    3    2
 1.424061606483673e-14    8    1    3    3
 6.018477410234604e-14    8    1    4    4
 6.218045826497653e-14    8    1    5    5
 0.02767896013493705    8    1    6    4
 -0.06883312785161659    8    1    6    5
 -9.476387773446615e-15    8    1    6    6
 -0.06883312785161666    8    1    7    4
 -0.02767896013493705    8    1    7    5
 -9.07753689924351e-15    8    1    7    7
 0.08233772142390235    8    1    8    1
 3.914280195544545e-14    8    1    8    2