 &FCI NORB=  10,NELEC=10,MS2=0,
  ORBSYM=1,1,1,1,1,1,1,1,1,1,
  ISYM=1,
 &END
 0.8175266716217325    1    1    1    1
 -9.70621152895923e-15    1    1    2    1
 0.5196562970359162    1    1    2    2
 -0.1428881743546475    1    1    3    1
 6.127476998019077e-15    1    1    3    2
 0.5673269296123247    1    1    3    3
 0.6320081464169838    1    1    4    4
 0.632008146416983    1    1    5    5
 -2.075027432865695e-15    1    1    6    5
 0.5299442506963633    1    1    6    6
 -2.757342965065135e-15    1    1    7    4
 0.5299442506963639    1    1    7    7
 1.467576060676379e-15    1    1    8    1
 0.09867004068837042    1    1    8    2
 -1.191668291822268e-14    1    1    8    3
 0.3730356567692754    1    1    8    8
 -0.08946677589516125    1    1    9    1
 1.503007787673205e-14    1    1    9    2
 0.130299078196259    1    1    9    3
 0.4688973800283348    1    1    9    9
 0.1245112107140893    1    1   10    4
 -0.1000301771980878    1    1   10    5
 2.72481689989057e-15    1    1   10    6
 -5.549380399649806e-15    1    1   10    7
 0.5096330343794364    1    1   10   10
 -9.779069914950256e-15    2    1    1    1
 0.05433332684721487    2    1    2    1
 1.051451135360149e-14    2    1    2    2
 2.345888240606886e-15    2    1    3    1
 0.09168161638806466    2    1    3    2
 -1.289859061573417e-14    2    1    3    3
 -2.942524696125659e-15    2    1    4    4
 -3.579181764336303e-15    2    1    5    5
 -0.02385913571772969    2    1    6    4
 -0.07714397460626268    2    1    6    5
 -2.196491216348133e-15    2    1    6    6
 -0.07714397460626282    2    1    7    4
 0.02385913571772968    2    1    7    5
 -2.269723037989779e-15    2    1    7    7
 0.03275019308730287    2    1    8    1
 -3.137708192227362e-15    2    1    8    2
 -0.007036819921722853    2    1    8    3
 -5.658776398853593e-15    2    1    8    8
 3.99067714637602e-15    2    1    9    1
 0.002108999831633768    2    1    9    2
 -1.796251949265359e-15    2    1    9    3
 0.03515188390910438    2    1    9    8
 1.37325047167014e-15    2    1    9    9
 0.008489338412011044    2    1   10    6
 -0.02145039814828802    2    1   10    7
 2.075813479440747e-15    2    1   10   10
 0.5196562970359161    2    2    1    1
 1.056945329869219e-14    2    2    2    1
 0.5358940620429127    2    2    2    2
 -0.005460116039411291    2    2    3    1
 2.525334542174962e-14    2    2    3    2
 0.5401634544043465    2    2    3    3
 0.4923125679399721    2    2    4    4
 0.4923125679399715    2    2    5    5
 -4.695869344414905e-15    2    2    6    4
 -1.540198632694889e-14    2    2    6    5
 0.478748291674551    2    2    6    6
 -1.603925325888156e-14    2    2    7    4
 4.878476095315776e-15    2    2    7    5
 0.4787482916745512    2    2    7    7
 4.400126096815171e-15    2    2    8    1
 0.05331044456176275    2    2    8    2
 -1.025568518997488e-14    2    2    8    3
 0.3677518598737847    2    2    8    8
 -0.02313434735478561    2    2    9    1
 7.841817473153156e-15    2    2    9    2
 0.04941395044954339    2    2    9    3
 9.783840404509192e-15    2    2    9    8
 0.396269904617572    2    2    9    9
 0.07059260050549396    2    2   10    4
 -0.05671288791539575    2    2   10    5
 2.67768798670534e-15    2    2   10    6
 -5.748656758952642e-15    2    2   10    7
 0.4188404111897027    2    2   10   10
 -0.1428881743546474    3    1    1    1
 2.361826012542423e-15    3    1    2    1
 -0.005460116039411354    3    1    2    2
 0.06668409949209197    3    1    3    1
 -6.333041729922328e-15    3    1    3    2
 -0.03290364666497282    3    1    3    3
 -0.06192461579826493    3    1    4    4
 -0.06192461579826487    3    1    5    5
 1.113612850480068e-15    3    1    6    4
 3.870193485892674e-15    3    1    6    5
 -0.02573492767326162    3    1    6    6
 3.95782582054971e-15    3    1    7    4
 -1.240164654997544e-15    3    1    7    5
 -0.02573492767326169    3    1    7    7
 -2.311519031739095e-15    3    1    8    1
 -0.01733225830884212    3    1    8    2
 2.039980597640101e-15    3    1    8    3
 -0.009014631114995274    3    1    8    8
 0.04063269761245927    3    1    9    1
 -3.547509508372571e-15    3    1    9    2
 -0.03937614858899933    3    1    9    3
 -1.000935445638618e-15    3    1    9    8
 -0.03801400005984045    3    1    9    9
 -0.02852620177780549    3    1   10    4
 0.02291746263053086    3    1   10    5
 2.135932489905068e-15    3    1   10    7
 -0.04168621995968651    3    1   10   10
 6.111430805866291e-15    3    2    1    1
 0.09168161638806469    3    2    2    1
 2.526993371498865e-14    3    2    2    2
 -6.31200820777611e-15    3    2    3    1
 0.208424590781194    3    2    3    2
 -2.25357926764147e-14    3    2    3    3
 4.265685027426969e-15    3    2    4    4
 3.208831854742411e-15    3    2    5    5
 -0.03938537050500537    3    2    6    4
 -0.1273450999249145    3    2    6    5
 -0.1273450999249146    3    2    7    4
 0.03938537050500536    3    2    7    5
 0.03831982745369531    3    2    8    1
 -3.487986809103116e-15    3    2    8    2
 -0.02279757126197402    3    2    8    3
 -1.115839191878631e-14    3    2    8    8
 -0.006890930864338739    3    2    9    2
 4.043748842719186e-15    3    2    9    3
 0.08796908147728282    3    2    9    8
 1.170678137762948e-14    3    2    9    9
 2.418285840674606e-15    3    2   10    4
 -2.138947927197293e-15    3    2   10    5
 0.00910763139023989    3    2   10    6
 -0.02301266718641892    3    2   10    7
 1.016680771688538e-14    3    2   10   10
 0.5673269296123248    3    3    1    1
 -1.285690304220211e-14    3    3    2    1
 0.5401634544043465    3    3    2    2
 -0.03290364666497281    3    3    3    1
 -2.253232322946275e-14    3    3    3    2
 0.5624411375816515    3    3    3    3
 0.5037581793634435    3    3    4    4
 0.5037581793634429    3    3    5    5
 4.508898679769779e-15    3    3    6    4
 1.428495993369139e-14    3    3    6    5
 0.4808897285243053    3    3    6    6
 1.358028273168443e-14    3    3    7    4
 -4.279996496103777e-15    3    3    7    5
 0.4808897285243056    3    3    7    7
 -4.588343593958655e-15    3    3    8    1
 0.05259159945686918    3    3    8    2
 -5.841681305351898e-15    3    3    8    3
 0.3743085061543697    3    3    8    8
 -0.04553816677591339    3    3    9    1
 1.083291442660617e-14    3    3    9    2
 0.06282514428284154    3    3    9    3
 -1.014813233446432e-14    3    3    9    8
 0.4120718531689539    3    3    9    9
 0.07979619646697787    3    3   10    4
 -0.0641068995036444    3    3   10    5
 0.4278690487866929    3    3   10   10
 0.1004521727978647    4    1    4    1
 1.257791830122769e-15    4    1    4    2
 0.01102003930195749    4    1    4    3
 -0.01882613483123887    4    1    6    2
 1.02755585726616e-15    4    1    6    3
 -0.06087072409232133    4    1    7    2
 3.434000286088171e-15    4    1    7    3
 -0.009584996563762037    4    1    8    6
 -0.03099126222608769    4    1    8    7
 0.02449391883156198    4    1    9    4
 0.03042636364286021    4    1   10    1
 -0.01359756789707985    4    1   10    3
 -0.01934256363922049    4    1   10    9
 1.266807906880424e-15    4    2    4    1
 0.0416269157378401    4    2    4    2
 -0.009941125464829219    4    2    6    1
 -1.158325058528587e-15    4    2    6    2
 -0.01000490007745629    4    2    6    3
 -0.03214273725123146    4    2    7    1
 -3.729762666854414e-15    4    2    7    2
 -0.03234894032393434    4    2    7    3
 0.01968764896323706    4    2    8    4
 1.356601192058909e-15    4    2    9    4
 -0.001514842712441244    4    2    9    6
 -0.004897955614302086    4    2    9    7
 0.007330198556605523    4    2   10    2
 0.01084577888905313    4    2   10    8
 1.466979749481512e-15    4    2   10    9
 0.01102003930195748    4    3    4    1
 0.02354750481398682    4    3    4    3
 -0.009704647468837526    4    3    6    2
 1.137411126188094e-15    4    3    6    3
 1.674553390530251e-15    4    3    7    1
 -0.03137813065635948    4    3    7    2
 3.703743929141077e-15    4    3    7    3
 -1.278596233880366e-15    4    3    8    4
 -0.001553868569123262    4    3    8    6
 -0.005024138294700962    4    3    8    7
 0.01002332535811061    4    3    9    4
 -0.002946921459617625    4    3   10    1
 0.001794027217180214    4    3   10    3
 0.001154752131775208    4    3   10    9
 0.6320081464169836    4    4    1    1
 -2.97495966496477e-15    4    4    2    1
 0.4923125679399722    4    4    2    2
 -0.06192461579826494    4    4    3    1
 4.243372530672399e-15    4    4    3    2
 0.5037581793634435    4    4    3    3
 0.5748528396979667    4    4    4    4
 0.5284956636000513    4    4    5    5
 -2.764790078737395e-15    4    4    6    5
 0.47496099605953    4    4    6    6
 -3.932618120039422e-15    4    4    7    4
 0.01008820001607291    4    4    7    6
 0.5044591862017027    4    4    7    7
 1.029615536897256e-15    4    4    8    1
 0.07922541157556462    4    4    8    2
 -9.431237411067493e-15    4    4    8    3
 0.3510085508639552    4    4    8    8
 -0.03329925909286613    4    4    9    1
 1.080537015027697e-14    4    4    9    2
 0.08313809539061988    4    4    9    3
 0.4163095456893759    4    4    9    9
 0.08866099906309127    4    4   10    4
 -0.06640215527593583    4    4   10    5
 2.075772821859279e-15    4    4   10    6
 -4.838143774499315e-15    4    4   10    7
 0.4607921054816657    4    4   10   10
 0.1004521727978646    5    1    5    1
 0.01102003930195745    5    1    5    3
 -0.06087072409232125    5    1    6    2
 3.387799783190623e-15    5    1    6    3
 0.01882613483123889    5    1    7    2
 -1.07834423246106e-15    5    1    7    3
 -0.03099126222608772    5    1    8    6
 0.009584996563762039    5    1    8    7
 0.024493918831562    5    1    9    5
 -0.02444402017483853    5    1   10    1
 0.01092405349210873    5    1   10    3
 0.01553948481586465    5    1   10    9
 0.04162691573783997    5    2    5    2
 -0.0321427372512314    5    2    6    1
 -3.548134151334719e-15    5    2    6    2
 -0.03234894032393429    5    2    6    3
 0.009941125464829201    5    2    7    1
 1.116703793842793e-15    5    2    7    2
 0.01000490007745632    5    2    7    3
 0.01968764896323701    5    2    8    5
 1.255780554413125e-15    5    2    9    5
 -0.004897955614302065    5    2    9    6
 0.001514842712441244    5    2    9    7
 -0.00588895615349955    5    2   10    2
 -0.008713313266341078    5    2   10    8
 -1.204819664174517e-15    5    2   10    9
 0.01102003930195744    5    3    5    1
 0.02354750481398677    5    3    5    3
 1.697694836660038e-15    5    3    6    1
 -0.03137813065635944    5    3    6    2
 3.749712325827772e-15    5    3    6    3
 0.009704647468837521    5    3    7    2
 -1.154104375468643e-15    5    3    7    3
 -1.360425122299289e-15    5    3    8    5
 -0.005024138294700953    5    3    8    6
 0.00155386856912324    5    3    8    7
 0.01002332535811059    5    3    9    5
 0.00236750630006559    5    3   10    1
 -0.001441290783404292    5    3   10    3
 -0.0009277081131801597    5    3   10    9
 0.02317858804895734    5    4    5    4
 0.01008820001607287    5    4    6    6
 0.01474909507108631    5    4    7    6
 -0.01008820001607293    5    4    7    7
 -0.002413287510265927    5    4   10    4
 0.003003907002077576    5    4   10    5
 -0.01526564121048878    5    4   10   10
 0.6320081464169829    5    5    1    1
 -3.581861393358567e-15    5    5    2    1
 0.4923125679399715    5    5    2    2
 -0.06192461579826494    5    5    3    1
 3.172136648259457e-15    5    5    3    2
 0.5037581793634429    5    5    3    3
 0.5284956636000513    5    5    4    4
 0.5748528396979654    5    5    5    5
 -2.239799058029179e-15    5    5    6    5
 0.504459186201702    5    5    6    6
 -2.39044894989604e-15    5    5    7    4
 -0.01008820001607291    5    5    7    6
 0.4749609960595295    5    5    7    7
 0.07922541157556426    5    5    8    2
 -9.177141315735717e-15    5    5    8    3
 0.3510085508639508    5    5    8    8
 -0.03329925909286606    5    5    9    1
 1.075897737959072e-14    5    5    9    2
 0.08313809539061988    5    5    9    3
 0.4163095456893754    5    5    9    9
 0.08265318505893615    5    5   10    4
 -0.07122873029646751    5    5   10    5
 2.331197301169707e-15    5    5   10    6
 -4.346132828625393e-15    5    5   10    7
 0.4540545600314077    5    5   10   10
 -0.009941125464829222    6    1    4    2
 -0.03214273725123139    6    1    5    2
 1.694832422786506e-15    6    1    5    3
 0.0315811641568231    6    1    6    1
 1.312155647745264e-15    6    1    6    2
 0.02189331688794087    6    1    6    3
 -0.005780470698529983    6    1    8    4
 -0.01869005189690391    6    1    8    5
 0.003816864924169318    6    1    9    6
 0.003281357954649233    6    1   10    2
 0.004696990470396367    6    1   10    8
 -0.01882613483123887    6    2    4    1
 -1.156889961376414e-15    6    2    4    2
 -0.009704647468837525    6    2    4    3
 -0.06087072409232126    6    2    5    1
 -3.531356335217691e-15    6    2    5    2
 -0.03137813065635945    6    2    5    3
 1.307921832788475e-15    6    2    6    1
 0.07184428411419927    6    2    6    2
 -2.496251558678005e-15    6    2    6    3
 0.02120208962480115    6    2    8    6
 -0.005962932100360037    6    2    9    4
 -0.0192800061146899    6    2    9    5
 0.006452977855063426    6    2   10    1
 -0.002816746395653632    6    2   10    3
 -0.003265798273608616    6    2   10    9
 1.024738313459422e-15    6    3    4    1
 -0.01000490007745629    6    3    4    2
 1.137167167409335e-15    6    3    4    3
 3.386567420841622e-15    6    3    5    1
 -0.03234894032393429    6    3    5    2
 3.747869795202482e-15    6    3    5    3
 0.02189331688794087    6    3    6    1
 -2.498737417130395e-15    6    3    6    2
 0.03579050684268757    6    3    6    3
 -0.002928364360749546    6    3    8    4
 -0.009468308850587548    6    3    8    5
 -1.247936976381991e-15    6    3    8    6
 0.002323853259956125    6    3    9    6
 0.00110787704256564    6    3   10    2
 0.003776882871449121    6    3   10    8
 -0.0238591357177297    6    4    2    1
 -4.679887042930624e-15    6    4    2    2
 1.110759085067791e-15    6    4    3    1
 -0.03938537050500537    6    4    3    2
 4.512817727442902e-15    6    4    3    3
 0.02448312809986778    6    4    6    4
 0.03493023126806861    6    4    6    5
 0.03493023126806867    6    4    7    4
 0.002876641456415083    6    4    7    5
 -0.01462564224426216    6    4    8    1
 0.002926568987176185    6    4    8    3
 2.624091755675925e-15    6    4    8    8
 -0.001327269887779651    6    4    9    2
 -0.01569007350860811    6    4    9    8
 -1.804220835233128e-15    6    4    9    9
 -0.00165872408830643    6    4   10    6
 0.007484446722445532    6    4   10    7
 -1.659493397733469e-15    6    4   10   10
 -2.023044834114157e-15    6    5    1    1
 -0.07714397460626267    6    5    2    1
 -1.540534806395511e-14    6    5    2    2
 3.873203652812687e-15    6    5    3    1
 -0.1273450999249145    6    5    3    2
 1.421262585074766e-14    6    5    3    3
 -2.756909284196141e-15    6    5    4    4
 -2.253134744750751e-15    6    5    5    5
 0.03493023126806862    6    5    6    4
 0.1266201398575562    6    5    6    5
 0.09926037030127355    6    5    7    4
 -0.0349302312680686    6    5    7    5
 -0.04728923072654386    6    5    8    1
 2.289336252932968e-15    6    5    8    2
 0.009462503851823342    6    5    8    3
 5.43269656343895e-15    6    5    8    8
 -1.284643858353571e-15    6    5    9    1
 -0.004291474583567719    6    5    9    2
 -1.53280610291322e-15    6    5    9    3
 -0.05073086664321255    6    5    9    8
 -6.246739236992482e-15    6    5    9    9
 -1.691179206224358e-15    6    5   10    4
 1.807114299780949e-15    6    5   10    5
 -0.01307711706674616    6    5   10    6
 0.02725245263381763    6    5   10    7
 -7.890660781023628e-15    6    5   10   10
 0.5299442506963634    6    6    1    1
 -2.210590030708264e-15    6    6    2    1
 0.4787482916745511    6    6    2    2
 -0.02573492767326164    6    6    3    1
 0.4808897285243053    6    6    3    3
 0.4749609960595301    6    6    4    4
 0.01008820001607283    6    6    5    4
 0.5044591862017019    6    6    5    5
 0.4792788492890929    6    6    6    6
 0.4427778670601957    6    6    7    7
 0.05963556991066422    6    6    8    2
 -6.714673621100725e-15    6    6    8    3
 0.3449119935187572    6    6    8    8
 -0.02272569847319861    6    6    9    1
 8.168515417719817e-15    6    6    9    2
 0.05711563094107804    6    6    9    3
 0.3848985064392633    6    6    9    9
 0.06477385923843283    6    6   10    4
 -0.05381643216239115    6    6   10    5
 1.640418215761302e-15    6    6   10    6
 -3.054848041195157e-15    6    6   10    7
 0.4083328276526892    6    6   10   10
 -0.03214273725123145    7    1    4    2
 1.677686854946904e-15    7    1    4    3
 0.009941125464829203    7    1    5    2
 0.03158116415682315    7    1    7    1
 1.250329081869913e-15    7    1    7    2
 0.02189331688794088    7    1    7    3
 -0.01869005189690395    7    1    8    4
 0.005780470698529975    7    1    8    5
 0.003816864924169328    7    1    9    7
 -0.008291156645928095    7    1   10    2
 -0.01186809982108475    7    1   10    8
 -1.175166734757038e-15    7    1   10    9
 -0.06087072409232132    7    2    4    1
 -3.730060609949663e-15    7    2    4    2
 -0.03137813065635948    7    2    4    3
 0.01882613483123889    7    2    5    1
 1.120490254456544e-15    7    2    5    2
 0.009704647468837519    7    2    5    3
 1.249060570801339e-15    7    2    7    1
 0.07184428411419937    7    2    7    2
 -2.646986707158731e-15    7    2    7    3
 0.02120208962480122    7    2    8    7
 -0.0192800061146899    7    2    9    4
 0.005962932100360052    7    2    9    5
 -0.01630503315044606    7    2   10    1
 0.007117201451651356    7    2   10    3
 0.008251841290928296    7    2   10    9
 3.430787419529982e-15    7    3    4    1
 -0.03234894032393432    7    3    4    2
 3.696912842386482e-15    7    3    4    3
 -1.077868512168873e-15    7    3    5    1
 0.01000490007745632    7    3    5    2
 -1.153968863487033e-15    7    3    5    3
 0.02189331688794089    7    3    7    1
 -2.640611273412549e-15    7    3    7    2
 0.03579050684268758    7    3    7    3
 -0.009468308850587545    7    3    8    4
 0.002928364360749563    7    3    8    5
 -1.322150668028182e-15    7    3    8    7
 0.002323853259956148    7    3    9    7
 -0.002799323399425119    7    3   10    2
 -0.009543222029811931    7    3   10    8
 -2.179517417238985e-15    7    3   10    9
 -2.730531170931289e-15    7    4    1    1
 -0.07714397460626279    7    4    2    1
 -1.604971509957453e-14    7    4    2    2
 3.963247019586666e-15    7    4    3    1
 -0.1273450999249146    7    4    3    2
 1.360876083675113e-14    7    4    3    3
 -3.908548831810243e-15    7    4    4    4
 -2.521501887495226e-15    7    4    5    5
 0.03493023126806868    7    4    6    4
 0.09926037030127355    7    4    6    5
 0.1266201398575566    7    4    7    4
 -0.03493023126806865    7    4    7    5
 -0.04728923072654379    7    4    8    1
 2.107754077799243e-15    7    4    8    2
 0.009462503851823552    7    4    8    3
 6.434546735718387e-15    7    4    8    8
 -1.188854977954858e-15    7    4    9    1
 -0.004291474583567738    7    4    9    2
 -1.720450935846784e-15    7    4    9    3
 -0.05073086664321273    7    4    9    8
 -6.470084884524496e-15    7    4    9    9
 -2.443629066456454e-15    7    4   10    4
 1.797722398461793e-15    7    4   10    5
 -0.01000665574604713    7    4   10    6
 0.03107436785180197    7    4   10    7
 -8.971014035796809e-15    7    4   10   10
 0.02385913571772968    7    5    2    1
 4.873885660577144e-15    7    5    2    2
 -1.240306220912714e-15    7    5    3    1
 0.03938537050500536    7    5    3    2
 -4.292719951778307e-15    7    5    3    3
 0.002876641456415086    7    5    6    4
 -0.03493023126806859    7    5    6    5
 -0.03493023126806865    7    5    7    4
 0.02448312809986776    7    5    7    5
 0.01462564224426213    7    5    8    1
 -0.002926568987176179    7    5    8    3
 -1.592316283011577e-15    7    5    8    8
 0.001327269887779638    7    5    9    2
 0.01569007350860799    7    5    9    8
 1.938445064186833e-15    7    5    9    9
 0.005480639306290597    7    5   10    6
 -0.01055490804314466    7    5   10    7
 3.234527446230318e-15    7    5   10   10
 0.0100882000160729    7    6    4    4
 0.01474909507108632    7    6    5    4
 -0.01008820001607291    7    6    5    5
 0.01825049111444866    7    6    7    6
 -0.0001556258578601334    7    6   10    4
 0.002019703944409578    7    6   10    5
 -0.009303415793022528    7    6   10   10
 0.5299442506963636    7    7    1    1
 -2.322676092888127e-15    7    7    2    1
 0.4787482916745513    7    7    2    2
 -0.02573492767326167    7    7    3    1
 0.4808897285243056    7    7    3    3
 0.5044591862017028    7    7    4    4
 -0.01008820001607295    7    7    5    4
 0.4749609960595296    7    7    5    5
 0.4427778670601956    7    7    6    6
 0.4792788492890931    7    7    7    7
 0.05963556991066439    7    7    8    2
 -6.829179917588196e-15    7    7    8    3
 0.3449119935187572    7    7    8    8
 -0.02272569847319858    7    7    9    1
 8.294010369300082e-15    7    7    9    2
 0.05711563094107813    7    7    9    3
 0.3848985064392632    7    7    9    9
 0.06881326712725219    7    7   10    4
 -0.05350518044667101    7    7   10    5
 1.569470736099282e-15    7    7   10    6
 -3.421525215929755e-15    7    7   10    7
 0.4281582164949578    7    7   10   10
 1.363817912769516e-15    8    1    1    1
 0.03275019308730277    8    1    2    1
 4.092876753659935e-15    8    1    2    2
 -2.245816380086474e-15    8    1    3    1
 0.03831982745369523    8    1    3    2
 -4.603725712280793e-15    8    1    3    3
 1.006573296935542e-15    8    1    4    4
 -0.01462564224426214    8    1    6    4
 -0.04728923072654374    8    1    6    5
 -0.04728923072654384    8    1    7    4
 0.01462564224426213    8    1    7    5
 0.02761126298320881    8    1    8    1
 0.0008080125099793983    8    1    8    3
 -2.647703020372538e-15    8    1    8    8
 0.007123728479171577    8    1    9    2
 0.006051380668453425    8    1    9    8
 1.619689625476095e-15    8    1    9    9
 1.092469214050706e-15    8    1   10    4
 0.008484283592025342    8    1   10    6
 -0.02143762590432748    8    1   10    7
 3.046181200078851e-15    8    1   10   10
 0.09867004068836994    8    2    1    1
 -2.965943463051346e-15    8    2    2    1
 0.05331044456176279    8    2    2    2
 -0.01733225830884213    8    2    3    1
 -3.488312069754862e-15    8    2    3    2
 0.05259159945686907    8    2    3    3
 0.07922541157556497    8    2    4    4
 0.07922541157556487    8    2    5    5
 2.147689307212958e-15    8    2    6    5
 0.05963556991066407    8    2    6    6
 1.99064939879201e-15    8    2    7    4
 0.05963556991066418    8    2    7    7
 0.03441628181571318    8    2    8    2
 -3.578300850071159e-15    8    2    8    3
 0.00191130269823079    8    2    8    8
 -0.005866700823465743    8    2    9    1
 3.822951070292513e-15    8    2    9    2
 0.03445957823033814    8    2    9    3
 -1.372816790801146e-15    8    2    9    8
 0.02756182802439218    8    2    9    9
 0.02528886110096095    8    2   10    4
 -0.02031663849832525    8    2   10    5
 0.0549045745410277    8    2   10   10
 -1.174116075089264e-14    8    3    1    1
 -0.00703681992172273    8    3    2    1
 -1.03182436553273e-14    8    3    2    2
 2.144064006198709e-15    8    3    3    1
 -0.02279757126197407    8    3    3    2
 -5.970863994203546e-15    8    3    3    3
 -9.429197873889184e-15    8    3    4    4
 -9.36636496986186e-15    8    3    5    5
 0.002926568987176222    8    3    6    4
 0.009462503851823562    8    3    6    5
 -7.248411389536974e-15    8    3    6    6
 0.009462503851823558    8    3    7    4
 -0.002926568987176211    8    3    7    5
 -7.150990953899705e-15    8    3    7    7
 0.0008080125099795864    8    3    8    1
 -2.586201652138298e-15    8    3    8    2
 0.02341725538933646    8    3    8    3
 9.525691867240393e-15    8    3    8    8
 1.437489450389906e-15    8    3    9    1
 0.01741897960844462    8    3    9    2
 -4.201744204304636e-15    8    3    9    3
 -0.0360190156244753    8    3    9    8
 -6.784611934762541e-15    8    3    9    9
 -3.317089441665089e-15    8    3   10    4
 2.68113710486656e-15    8    3   10    5
 0.003190518505839957    8    3   10    6
 -0.008061628471886422    8    3   10    7
 -7.819211857856834e-15    8    3   10   10
 0.01968764896323705    8    4    4    2
 -1.283384683611856e-15    8    4    4    3
 -0.005780470698529978    8    4    6    1
 -0.002928364360749549    8    4    6    3
 -0.01869005189690393    8    4    7    1
 -0.009468308850587559    8    4    7    3
 0.01437072627060965    8    4    8    4
 -0.001625829989873832    8    4    9    6
 -0.005256811853403619    8    4    9    7
 0.006468275175308142    8    4   10    2
 0.004541653203295603    8    4   10    8
 0.01968764896323702    8    5    5    2
 -1.345968214991365e-15    8    5    5    3
 -0.0186900518969039    8    5    6    1
 -0.009468308850587553    8    5    6    3
 0.005780470698529972    8    5    7    1
 0.00292836436074957    8    5    7    3
 0.01437072627060964    8    5    8    5
 -0.005256811853403625    8    5    9    6
 0.001625829989873829    8    5    9    7
 -0.005196501650263451    8    5   10    2
 -0.003648686508567653    8    5   10    8
 -0.009584996563762058    8    6    4    1
 -0.001553868569123252    8    6    4    3
 -0.03099126222608761    8    6    5    1
 -0.00502413829470097    8    6    5    3
 0.02120208962480118    8    6    6    2
 -1.247190973744233e-15    8    6    6    3
 0.01767752113308019    8    6    8    6
 -0.003202866694304118    8    6    9    4
 -0.0103558599043902    8    6    9    5
 0.005204894402929742    8    6   10    1
 -6.307301955496295e-05    8    6   10    3
 -0.00370708432686197    8    6   10    9
 -0.03099126222608765    8    7    4    1
 -0.005024138294700983    8    7    4    3
 0.009584996563762048    8    7    5    1
 0.001553868569123248    8    7    5    3
 0.02120208962480123    8    7    7    2
 -1.235415160813075e-15    8    7    7    3
 0.01767752113308021    8    7    8    7
 -0.0103558599043902    8    7    9    4
 0.003202866694304112    8    7    9    5
 -0.01315144382802264    8    7   10    1
 0.0001593694721787253    8    7   10    3
 0.009366858867112837    8    7   10    9
 0.3730356567692765    8    8    1    1
 -4.948407135441091e-15    8    8    2    1
 0.3677518598737853    8    8    2    2
 -0.009014631114993945    8    8    3    1
 -1.037364638634131e-14    8    8    3    2
 0.3743085061543701    8    8    3    3
 0.3510085508639542    8    8    4    4
 0.3510085508639538    8    8    5    5
 1.674983936272856e-15    8    8    6    4
 5.216598095332536e-15    8    8    6    5
 0.3449119935187556    8    8    6    6
 4.947431353485854e-15    8    8    7    4
 -1.588789863560258e-15    8    8    7    5
 0.3449119935187556    8    8    7    7
 -4.933119884809045e-15    8    8    8    1
 0.001911302698235045    8    8    8    2
 1.301042606982605e-15    8    8    8    3
 0.3492184342926527    8    8    8    8
 -0.01812195275581832    8    8    9    1
 2.85492116058883e-15    8    8    9    2
 0.003027879383523684    8    8    9    3
 7.853960537484994e-15    8    8    9    8
 0.3378918881320457    8    8    9    9
 0.0311795312473071    8    8   10    4
 -0.02504910214698051    8    8   10    5
 0.3165815257419982    8    8   10   10
 -0.08946677589516118    9    1    1    1
 3.984442983884229e-15    9    1    2    1
 -0.02313434735478561    9    1    2    2
 0.04063269761245926    9    1    3    1
 -0.04553816677591341    9    1    3    3
 -0.03329925909286616    9    1    4    4
 -0.03329925909286609    9    1    5    5
 -1.324323095779653e-15    9    1    6    5
 -0.02272569847319861    9    1    6    6
 -1.174068980057397e-15    9    1    7    4
 -0.02272569847319866    9    1    7    7
 -0.005866700823465753    9    1    8    2
 1.545150726117717e-15    9    1    8    3
 -0.01812195275581801    9    1    8    8
 0.03945280636596761    9    1    9    1
 -2.011953971481351e-15    9    1    9    2
 -0.02367622408416678    9    1    9    3
 -0.02550214975454976    9    1    9    9
 -0.02501382698363082    9    1   10    4
 0.02009568079231413    9    1   10    5
 -0.02459366393471041    9    1   10   10
 1.500297282241991e-14    9    2    1    1
 0.00210899983163379    9    2    2    1
 7.987249642064931e-15    9    2    2    2
 -3.526665721606537e-15    9    2    3    1
 -0.006890930864338729    9    2    3    2
 1.084356671295084e-14    9    2    3    3
 1.07716976614422e-14    9    2    4    4
 1.071858869564936e-14    9    2    5    5