 &FCI NORB=  10,NELEC=10,MS2=0,
  ORBSYM=1,1,1,1,1,1,1,1,1,1,
  ISYM=1,
 &END
 0.7715871163407699    1    1    1    1
 -0.006138075346960038    2    1    1    1
 0.0002253253398980557    2    1    2    1
 0.2882562996840006    2    2    1    1
 -0.003108726431459386    2    2    2    1
 0.7717372960292261    2    2    2    2
 0.03982836697591395    3    1    1    1
 -0.001022916673774434    3    1    2    1
 -0.02513173376246326    3    1    2    2
 0.0259544636646867    3    1    3    1
 -0.02538454343603353    3    2    1    1
 -0.0006118394104244082    3    2    2    1
 0.03998569289323013    3    2    2    2
 0.004809282514631048    3    2    3    1
 0.0258980042987484    3    2    3    2
 0.5353064089412994    3    3    1    1
 -0.001411093882723092    3    3    2    1
 0.5353374099368157    3    3    2    2
 -0.05568317236715391    3    3    3    1
 -0.05535608789357227    3    3    3    2
 0.9398552710555088    3    3    3    3
 0.0001759793977697755    4    1    1    1
 -0.0001175425535438378    4    1    2    1
 -0.0003301642337742416    4    1    2    2
 0.0001047154630785953    4    1    3    1
 0.0001075662261682674    4    1    3    2
 -0.0001352066679652167    4    1    3    3
 0.05326683956503131    4    1    4    1
 -0.0006740458945929312    4    2    1    1
 -6.201237843483294e-05    4    2    2    1
 0.0003140744074398355    4    2    2    2
 7.63425687049667e-05    4    2    3    1
 0.0002891866271938881    4    2    3    2
 -0.0003913499709617185    4    2    3    3
 0.00774626319377796    4    2    4    1
 0.05335147536623534    4    2    4    2
 0.0002228832003346127    4    3    1    1
 6.429269106585401e-05    4    3    2    1
 0.0003025320480595017    4    3    2    2
 -1.554241943540997e-05    4    3    3    1
 -0.000115896755695185    4    3    3    2
 -0.0001968164191238485    4    3    3    3
 -0.02547474261375855    4    3    4    1
 -0.02535033480374067    4    3    4    2
 0.05676812989182022    4    3    4    3
 0.4909003339367823    4    4    1    1
 -0.002225878214762374    4    4    2    1
 0.4914313277921665    4    4    2    2
 -0.02793450419536996    4    4    3    1
 -0.02773009854817232    4    4    3    2
 0.6358725880544607    4    4    3    3
 9.636203768454588e-06    4    4    4    1
 0.0001004883531174603    4    4    4    2
 -0.0002712279650464539    4    4    4    3
 0.559102804230486    4    4    4    4
 0.0005747338702936002    5    1    1    1
 4.653818751424266e-05    5    1    2    1
 -0.000761859504616351    5    1    2    2
 0.0003384775452562084    5    1    3    1
 -9.904902497014032e-06    5    1    3    2
 -0.0003654029983536341    5    1    3    3
 0.003510135696956492    5    1    4    1
 0.005770197889492267    5    1    4    2
 -0.00669598953306713    5    1    4    3
 -7.590135738553018e-05    5    1    4    4
 0.0539346445258616    5    1    5    1
 0.0002637480435318947    5    2    1    1
 -0.0001465152006208321    5    2    2    1
 -0.0001721692296177062    5    2    2    2
 7.681971212522456e-05    5    2    3    1
 -0.0002272002981262051    5    2    3    2
 0.0002054636138145068    5    2    3    3
 -0.005800355542377894    5    2    4    1
 -0.003525103080464161    5    2    4    2
 0.006731621104915972    5    2    4    3
 -1.937220657025244e-05    5    2    4    4
 0.006962895621115138    5    2    5    1
 0.05377641352757297    5    2    5    2
 0.0003850914372776174    5    3    1    1
 3.450398300304996e-05    5    3    2    1
 -0.0001421683741606914    5    3    2    2
 -0.000122947473305139    5    3    3    1
 8.899867302156222e-05    5    3    3    2
 -1.458391916965817e-05    5    3    3    3
 0.005001047415352662    5    3    4    1
 -0.00504673458943554    5    3    4    2
 3.624031526113935e-06    5    3    4    3
 1.074093053478355e-05    5    3    4    4
 -0.02450994829915797    5    3    5    1
 -0.0243368790456363    5    3    5    2
 0.05489378421437009    5    3    5    3
 0.009674850154272649    5    4    1    1
 -6.029446632150858e-05    5    4    2    1
 -0.009741267405616707    5    4    2    2
 0.0006162849834291438    5    4    3    1
 -0.0006246009854725081    5    4    3    2
 -3.467906034391047e-05    5    4    3    3
 9.469593534502043e-05    5    4    4    1
 -0.0001294890449752377    5    4    4    2
 1.599025156285383e-05    5    4    4    3
 -3.655707850143914e-05    5    4    4    4
 6.386670981951213e-05    5    4    5    1
 0.0001313785205014241    5    4    5    2
 -6.357826662038012e-05    5    4    5    3
 0.02052386870265813    5    4    5    4
 0.4911628236427431    5    5    1    1
 -0.002287979598215211    5    5    2    1
 0.4910092751008698    5    5    2    2
 -0.02717857823696836    5    5    3    1
 -0.02702578489929305    5    5    3    2
 0.6323991770544791    5    5    3    3
 1.148247587527556e-05    5    5    4    1
 -7.430478967964315e-05    5    5    4    2
 -0.0001666368631548443    5    5    4    3
 0.516937935206925    5    5    4    4
 0.0001117863532930187    5    5    5    1
 -0.0001822759333083139    5    5    5    2
 1.609599143313138e-05    5    5    5    3
 -1.763806964288868e-05    5    5    5    4
 0.5547514140867913    5    5    5    5
 -0.001049979493962397    6    1    1    1
 -1.00077816470059e-05    6    1    2    1
 0.0003254513655336855    6    1    2    2
 -4.944482192984345e-07    6    1    3    1
 7.393924985668565e-05    6    1    3    2
 -3.774660919620914e-05    6    1    3    3
 0.03708006609226012    6    1    4    1
 0.008335367975007651    6    1    4    2
 -0.019739201130088    6    1    4    3
 -5.593090044504701e-06    6    1    4    4
 0.04265463562515022    6    1    5    1
 -0.0003415349153360195    6    1    5    2
 -0.00780707700872469    6    1    5    3
 0.0001093174075215372    6    1    5    4
 0.0002709791844070915    6    1    5    5
 0.05881584800907567    6    1    6    1
 8.346251054645798e-05    6    2    1    1
 0.0001501774574031702    6    2    2    1
 0.0002809020297300966    6    2    2    2
 -6.720651793544312e-05    6    2    3    1
 7.234807972172745e-05    6    2    3    2
 -8.288988264959252e-05    6    2    3    3
 -0.0007476890730311705    6    2    4    1
 -0.04232908747967344    6    2    4    2
 0.008752982562860258    6    2    4    3
 -0.0002769913147749153    6    2    4    4
 -0.009409728717751706    6    2    5    1
 -0.0367428148521492    6    2    5    2
 0.02068617391750156    6    2    5    3
 -4.086813464237796e-07    6    2    5    4
 0.0001653770223464196    6    2    5    5
 -0.006218547725164859    6    2    6    1
 0.06599362426643887    6    2    6    2
 -6.746052909974134e-05    6    3    1    1
 -7.06487740770935e-06    6    3    2    1
 7.103523113204078e-05    6    3    2    2
 4.958353031557509e-05    6    3    3    1
 -6.455058303036327e-05    6    3    3    2
 -0.0001306399411031369    6    3    3    3
 -0.01060033687436221    6    3    4    1
 -0.0004466773517502941    6    3    4    2
 0.01106335642390221    6    3    4    3
 -4.650529005753238e-05    6    3    4    4
 0.00142792936352042    6    3    5    1
 0.01148973771328538    6    3    5    2
 -0.01292161257194526    6    3    5    3
 3.314156033881275e-06    6    3    5    4
 -0.0001546446928138496    6    3    5    5
 -0.005425409038520706    6    3    6    1
 -0.007222386169700274    6    3    6    2
 0.01871260719970371    6    3    6    3
 0.1131786134324524    6    4    1    1
 -0.0004299814325349999    6    4    2    1
 -0.1063393264083416    6    4    2    2
 0.002682273375454039    6    4    3    1
 -0.01116674717707391    6    4    3    2
 0.02412608695829218    6    4    3    3
 8.574725625090081e-05    6    4    4    1
 -0.0005195296534225118    6    4    4    2
 9.019996872207198e-05    6    4    4    3
 0.01521966338800896    6    4    4    4
 0.0003809186698710775    6    4    5    1
 0.0001124389323363861    6    4    5    2
 5.704381193366719e-05    6    4    5    3
 0.002746436971178275    6    4    5    4
 0.01160331512858123    6    4    5    5
 -0.0003164609719180609    6    4    6    1
 0.0001286393960219813    6    4    6    2
 -4.068604148803072e-05    6    4    6    3
 0.0793595071237921    6    4    6    4
 0.1053830798583724    6    5    1    1
 -0.0009776299188254366    6    5    2    1
 -0.1144182163916914    6    5    2    2
 0.01185798276575654    6    5    3    1
 -0.002061984468857176    6    5    3    2
 -0.02881271113499784    6    5    3    3
 0.0002398081579688108    6    5    4    1
 -0.0001463134679580212    6    5    4    2
 -3.264258175081615e-05    6    5    4    3
 -0.01153416450681268    6    5    4    4
 0.000669004813529327    6    5    5    1
 0.0002949879475550119    6    5    5    2
 -0.000141175609306294    6    5    5    3
 0.007920573945232445    6    5    5    4
 -0.01774324946095453    6    5    5    5
 -9.976503621801859e-05    6    5    6    1
 -0.0002302632411460916    6    5    6    2
 1.837199960426013e-06    6    5    6    3
 0.05976590867447191    6    5    6    4
 0.08038000542842032    6    5    6    5
 0.4697770978990552    6    6    1    1
 -0.003070807097916308    6    6    2    1
 0.4897338060969624    6    6    2    2
 -0.0139248396744997    6    6    3    1
 -0.01266476606427005    6    6    3    2
 0.553325859947377    6    6    3    3
 -0.0001502853185233298    6    6    4    1
 -2.184349304595901e-05    6    6    4    2
 -7.222821838604768e-06    6    6    4    3
 0.4942682949992241    6    6    4    4
 -0.0001170527515632364    6    6    5    1
 -0.0001088433841483926    6    6    5    2
 5.460164611045345e-05    6    6    5    3
 0.0148399848302427    6    6    5    4
 0.493908254775454    6    6    5    5
 -8.736323051822946e-05    6    6    6    1
 7.354385901220082e-05    6    6    6    2
 -4.084481744742503e-05    6    6    6    3
 -0.0003854726706233338    6    6    6    4
 -0.01395138933066937    6    6    6    5
 0.4866366130067935    6    6    6    6
 0.0004323467079432723    7    1    1    1
 -0.0001377845931975575    7    1    2    1
 -0.0002638537594546872    7    1    2    2
 -5.040225020886442e-05    7    1    3    1
 4.002224696866822e-05    7    1    3    2
 8.326160161081888e-05    7    1    3    3
 0.04231801079321894    7    1    4    1
 0.0002641111004691229    7    1    4    2
 -0.008683343766284634    7    1    4    3
 7.75798918376767e-05    7    1    4    4
 -0.03676971511000928    7    1    5    1
 -0.008895187538591448    7    1    5    2
 0.02063783494793426    7    1    5    3
 0.0001382626026207275    7    1    5    4
 -0.0001822638779495388    7    1    5    5
 -0.0001697308756492541    7    1    6    1
 0.006142322618947471    7    1    6    2
 -0.0064628441278232    7    1    6    3
 5.013520745954503e-05    7    1    6    4
 8.254447895607311e-05    7    1    6    5
 -2.452651626682833e-05    7    1    6    6
 0.06600982982409279    7    1    7    1
 -0.0003729514715301508    7    2    1    1
 -7.29284920592209e-05    7    2    2    1
 0.0009869189400545004    7    2    2    2
 -3.345620561495331e-05    7    2    3    1
 -0.0001294100485859449    7    2    3    2
 0.000168870929979604    7    2    3    3
 -0.008822432732031704    7    2    4    1
 -0.03709050138636682    7    2    4    2
 0.01978304526094514    7    2    4    3
 -0.0001564400081822215    7    2    4    4
 0.0001679233031630327    7    2    5    1
 0.04264680097386758    7    2    5    2
 -0.007911179737572882    7    2    5    3
 0.0002093841635548892    7    2    5    4
 -0.0001676731681725178    7    2    5    5
 -0.005392354383941452    7    2    6    1
 -0.0002697732439841485    7    2    6    2
 0.005366274521044161    7    2    6    3
 -0.00019479206375185    7    2    6    4
 -0.0002139196475132271    7    2    6    5
 4.714725109492497e-05    7    2    6    6
 -0.00628053598630441    7    2    7    1
 0.05883263043823677    7    2    7    2
 -8.507123664149259e-05    7    3    1    1
 3.230959683335971e-06    7    3    2    1
 -0.0003519962272517596    7    3    2    2
 8.976467066906132e-05    7    3    3    1
 2.946636286864308e-05    7    3    3    2
 -0.0003378409102793344    7    3    3    3
 0.0004510827595583251    7    3    4    1
 0.01058564448305234    7    3    4    2
 -0.01097891434583324    7    3    4    3
 -6.286309748318428e-05    7    3    4    4
 0.01153284650818761    7    3    5    1
 0.001414507678595442    7    3    5    2
 -0.01303357569750369    7    3    5    3
 -4.450825559607738e-05    7    3    5    4
 -6.205993322385754e-05    7    3    5    5
 0.005317612621317146    7    3    6    1
 -0.006511657240595161    7    3    6    2
 0.001214855643698942    7    3    6    3
 4.519324322504679e-05    7    3    6    4
 0.0001295744641207042    7    3    6    5
 -0.0001322947826329426    7    3    6    6
 -0.00731601278415185    7    3    7    1
 -0.005318564665642681    7    3    7    2
 0.018737506940923    7    3    7    3
 0.1065798585719377    7    4    1    1
 -0.0009517503670468544    7    4    2    1
 -0.1132705282528517    7    4    2    2
 0.01112649481562317    7    4    3    1
 -0.002780801082895909    7    4    3    2
 -0.02387776891940138    7    4    3    3
 8.220025221597768e-05    7    4    4    1
 -0.0004286252686741572    7    4    4    2
 0.0001713035221008869    7    4    4    3
 -0.01538153424715962    7    4    4    4
 0.00043838396050326    7    4    5    1
 0.0003613488097954981    7    4    5    2
 -6.545556174352541e-05    7    4    5    3
 0.002777850464183768    7    4    5    4
 -0.01138016188304683    7    4    5    5
 -0.0002842340474351636    7    4    6    1
 -5.826224988060605e-05    7    4    6    2
 2.451993324518914e-05    7    4    6    3
 0.0603782635666435    7    4    6    4
 0.0475584723045689    7    4    6    5
 -0.01348202099933259    7    4    6    6
 4.604454255143091e-05    7    4    7    1
 -6.37201647049271e-05    7    4    7    2
 7.771586167886747e-05    7    4    7    3
 0.07953409273093912    7    4    7    4
 -0.1145490376267559    7    5    1    1
 0.0004100062466496197    7    5    2    1
 0.1049851542811819    7    5    2    2
 -0.001949829443041528    7    5    3    1
 0.01189382612965196    7    5    3    2
 -0.02934719792052153    7    5    3    3
 0.0001313980147630871    7    5    4    1
 0.0004643985305050057    7    5    4    2
 -0.0001574243330407114    7    5    4    3
 -0.01160447179493876    7    5    4    4
 -0.0005368440629194082    7    5    5    1
 -0.0003950329643519471    7    5    5    2
 0.0001530899954319698    7    5    5    3
 -0.007890827845405849    7    5    5    4
 -0.01820171520787536    7    5    5    5
 0.0002673366332633622    7    5    6    1
 4.727996463287489e-05    7    5    6    2
 -1.572381222918516e-05    7    5    6    3
 -0.04740899819037621    7    5    6    4
 -0.05925954403851508    7    5    6    5
 -0.005729972581124477    7    5    6    6
 0.0001603371167683173    7    5    7    1
 3.44657636950219e-05    7    5    7    2
 -8.601293201765812e-05    7    5    7    3
 -0.0597967385861898    7    5    7    4
 0.0802668242679362    7    5    7    5
 0.0008213115714031434    7    6    1    1
 1.603809856645427e-05    7    6    2    1
 0.0006209874642141162    7    6    2    2
 -0.0004392219143187373    7    6    3    1
 -0.0004677808801019959    7    6    3    2
 0.003074527947949829    7    6    3    3
 -6.018264682703749e-05    7    6    4    1
 -3.508330842898468e-05    7    6    4    2
 2.390148631065965e-05    7    6    4    3
 0.0171097733770754    7    6    4    4
 3.4472653282114e-05    7    6    5    1
 -7.835617618147995e-07    7    6    5    2
 7.025277200996496e-06    7    6    5    3
 1.944921077788837e-05    7    6    5    4
 -0.01350634022462107    7    6    5    5
 -5.434870554038785e-05    7    6    6    1
 -3.934162516511453e-05    7    6    6    2
 1.603243069423478e-05    7    6    6    3
 0.0008976155736827845    7    6    6    4
 0.001903107398422005    7    6    6    5
 0.0009751569000701429    7    6    6    6
 -2.628221640979135e-05    7    6    7    1
 2.219636471467505e-05    7    6    7    2
 -2.11170038691458e-06    7    6    7    3
 -0.000781299813804381    7    6    7    4
 0.001829093150758077    7    6    7    5
 0.01634673215798789    7    6    7    6
 0.4901259171059664    7    7    1    1
 -0.003201830349511913    7    7    2    1
 0.4696433113428596    7    7    2    2
 -0.01276058408796256    7    7    3    1
 -0.01384725630779773    7    7    3    2
 0.5535321651471214    7    7    3    3
 -5.393138907580605e-05    7    7    4    1
 -8.545845779339069e-05    7    7    4    2
 1.724556148713815e-05    7    7    4    3
 0.4944034336867755    7    7    4    4
 7.631588607819517e-05    7    7    5    1
 -1.138104440322967e-05    7    7    5    2
 -1.029745211419351e-06    7    7    5    3
 -0.01488591259936404    7    7    5    4
 0.494010937555988    7    7    5    5
 -9.953270911665442e-05    7    7    6    1
 1.843547140620903e-05    7    7    6    2
 -3.951068704003982e-05    7    7    6    3
 0.01378903418363922    7    7    6    4
 -0.005322382240697213    7    7    6    5
 0.4529360018403181    7    7    6    6
 -0.0001223955602253242    7    7    7    1
 -7.528788098385409e-05    7    7    7    2
 -7.96366986308554e-05    7    7    7    3
 0.0007061940229159241    7    7    7    4
 -0.0144398156283022    7    7    7    5
 0.0009848746030393369    7    7    7    6
 0.486934277686055    7    7    7    7
 -0.04037373637645292    8    1    1    1
 0.0004526016414557034    8    1    2    1
 -0.03590934157471151    8    1    2    2
 0.01513033581555159    8    1    3    1
 0.004751271892539746    8    1    3    2
 -0.0731784349946011    8    1    3    3
 -0.0001123430064641472    8    1    4    1
 7.956389171874736e-05    8    1    4    2
 5.959513494017697e-05    8    1    4    3
 -0.05998408684024045    8    1    4    4
 0.0002299680985402015    8    1    5    1
 -3.810429974951013e-05    8    1    5    2
 -5.051464664764528e-05    8    1    5    3
 -0.0007161949215093688    8    1    5    4
 -0.05942060517821414    8    1    5    5
 9.375707586490479e-05    8    1    6    1
 3.047326446070543e-05    8    1    6    2
 2.940359957531535e-05    8    1    6    3
 -0.01212621378049728    8    1    6    4
 -0.003816416674999734    8    1    6    5
 -0.0460741796346858    8    1    6    6
 -0.0002412495054425183    8    1    7    1
 3.077858712462407e-05    8    1    7    2
 8.33563513031658e-05    8    1    7    3
 -0.00457316424225724    8    1    7    4
 0.01290276547795718    8    1    7    5
 -0.0004438585421620746    8    1    7    6
 -0.0479067391986136    8    1    7    7
 0.04432756079116443    8    1    8    1
 0.005995201641941657    8    2    1    1
 -0.0003313666095602803    8    2    2    1
 0.01967700589991964    8    2    2    2
 -0.0008047732706490484    8    2    3    1
 -0.002995590052210615    8    2    3    2
 0.02421462107268093    8    2    3    3
 7.223790572668807e-05    8    2    4    1
 0.0001439174040443199    8    2    4    2
 -7.512823996510656e-05    8    2    4    3
 0.01506010159381864    8    2    4    4
 -5.669201942383272e-05    8    2    5    1
 0.0001046476467192213    8    2    5    2
 -5.633743680061112e-05    8    2    5    3
 -0.0004740983789089214    8    2    5    4
 0.01500584836349456    8    2    5    5
 6.784087845231839e-05    8    2    6    1
 -0.0001901499068368904    8    2    6    2
 3.500814593643828e-05    8    2    6    3
 -0.004857860277959715    8    2    6    4
 -0.00602217993330503    8    2    6    5
 0.01383930082171702    8    2    6    6
 6.793155670251782e-05    8    2    7    1
 1.493594301856583e-05    8    2    7    2
 -4.326097229751256e-05    8    2    7    3
 -0.005881489736982684    8    2    7    4
 0.004693659079812919    8    2    7    5
 9.115980358935741e-05    8    2    7    6
 0.01280123627223707    8    2    7    7
 -0.0004362851499584669    8    2    8    1
 0.002952847536413576    8    2    8    2
 0.005290633113917217    8    3    1    1
 0.0003049607058667244    8    3    2    1
 -0.07039502014858837    8    3    2    2
 0.01010167987887899    8    3    3    1
 0.008526197890674643    8    3    3    2
 -0.1217073270615305    8    3    3    3
 0.000129223554152021    8    3    4    1
 -7.735562805667567e-05    8    3    4    2
 1.692436397217398e-05    8    3    4    3
 -0.05011798479457521    8    3    4    4
 9.814493796544468e-05    8    3    5    1
 -0.0001242005309368968    8    3    5    2
 0.0002912014583665384    8    3    5    3
 0.002005538986361912    8    3    5    4
 -0.04957596383182553    8    3    5    5
 -9.809115841525737e-05    8    3    6    1
 0.0001337096464556138    8    3    6    2
 -0.0001095213947516522    8    3    6    3
 0.01900441273062426    8    3    6    4
 0.02700612825703212    8    3    6    5
 -0.03982181176908058    8    3    6    6
 0.0001483943774416217    8    3    7    1
 -0.0001842476042183977    8    3    7    2
 2.863275778591262e-05    8    3    7    3
 0.02622082940022235    8    3    7    4
 -0.01815190195433078    8    3    7    5
 -0.0004783522315825143    8    3    7    6
 -0.03564517600359211    8    3    7    7
 0.01296474797494648    8    3    8    1
 -0.007063601401669091    8    3    8    2
 0.04298216173714188    8    3    8    3
 -0.0004631931029348625    8    4    1    1
 4.196046323634537e-05    8    4    2    1
 0.0004816943072910488    8    4    2    2
 8.833646221650769e-06    8    4    3    1
 -1.465650276655902e-05    8    4    3    2
 -0.0001045173259690523    8    4    3    3
 -0.02004942568897254    8    4    4    1
 -0.0006176636084240685    8    4    4    2
 0.008897303518651121    8    4    4    3
 -8.816609829858391e-05    8    4    4    4
 -0.002977864631544677    8    4    5    1
 0.002929197720120728    8    4    5    2
 -0.002290383908559812    8    4    5    3
 -5.293811240269585e-05    8    4    5    4
 -0.0001063091055236903    8    4    5    5
 -0.0152842381607876    8    4    6    1
 -0.002538400745199727    8    4    6    2
 0.007534087206245841    8    4    6    3
 -0.0003413716767067706    8    4    6    4
 -0.0003163568632034002    8    4    6    5
 3.099579367309899e-05    8    4    6    6
 -0.01135454579422693    8    4    7    1
 0.001844993308971491    8    4    7    2
 0.003750861772053466    8    4    7    3
 -0.0002894647459838762    8    4    7    4
 0.0002077924552679607    8    4    7    5
 2.334224428124424e-05    8    4    7    6
 -6.982164681117546e-05    8    4    7    7
 0.0001828639570006541    8    4    8    1
 -6.560951968708844e-06    8    4    8    2
 -0.0001357686185167891    8    4    8    3
 0.01625580341057021    8    4    8    4
 0.0007365293128164482    8    5    1    1
 -4.499715969863155e-05    8    5    2    1
 0.0007688482061974388    8    5    2    2
 -6.635184020534516e-05    8    5    3    1
 -7.341088710565214e-05    8    5    3    2
 0.001188905926324542    8    5    3    3
 0.0008875091365811992    8    5    4    1
 -0.003433827179180718    8    5    4    2
 0.003706334822786433    8    5    4    3
 0.0006336656921916838    8    5    4    4
 -0.01971699076262778    8    5    5    1
 -0.0001476547518123471    8    5    5    2
 0.008515679559515958    8    5    5    3
 -4.147296165923138e-06    8    5    5    4
 0.0005867091159208026    8    5    5    5
 -0.01102710964718615    8    5    6    1
 0.002113566379903976    8    5    6    2
 0.003456396663512432    8    5    6    3
 -7.038108250956517e-05    8    5    6    4
 -0.0002032866557421263    8    5    6    5
 0.0006158891130902447    8    5    6    6
 0.01559526653672622    8    5    7    1
 0.002828230721130612    8    5    7    2
 -0.00779442136189336    8    5    7    3
 -5.820250187752256e-05    8    5    7    4
 9.310021313637519e-05    8    5    7    5
 -1.970580096505611e-05    8    5    7    6
 0.0005529159900211725    8    5    7    7
 -0.0001075696419216214    8    5    8    1
 0.0001580249949878679    8    5    8    2
 -0.0002650163426740659    8    5    8    3
 0.0005142312243876278    8    5    8    4
 0.01605818222089954    8    5    8    5
 4.224950234955979e-05    8    6    1    1
 4.405828560142308e-05    8    6    2    1
 -0.0009356103382266179    8    6    2    2
 5.690124983551947e-05    8    6    3    1
 2.748789928477954e-05    8    6    3    2
 -0.0009267031634618489    8    6    3    3
 -0.01224863062388479    8    6    4    1
 -0.007559618608635376    8    6    4    2
 0.01221950184596486    8    6    4    3
 -0.0007228068800302092    8    6    4    4
 -0.008010861357926717    8    6    5    1
 -0.002905298113671931    8    6    5    2
 0.008240149559008638    8    6    5    3
 -5.108145099379052e-05    8    6    5    4
 -0.0006627184351257973    8    6    5    5
 -0.01215751558252174    8    6    6    1
 0.00732954740534118    8    6    6    2
 0.001558839544962366    8    6    6    3
 0.0002610298800122011    8    6    6    4
 0.0002474148380500181    8    6    6    5
 -0.0005676594151751404    8    6    6    6
 -0.002125088889982405    8    6    7    1
 0.002972264188243358    8    6    7    2
 -0.002864754848611817    8    6    7    3
 0.0002815441430315001    8    6    7    4
 -0.0002327511211635545    8    6    7    5
 -1.129345047022302e-05    8    6    7    6
 -0.0004705947468918087    8    6    7    7
 0.0001123938071768971    8    6    8    1
 -0.0001359091861705137    8    6    8    2
 0.0003134327486989786    8    6    8    3
 0.006677939446634028    8    6    8    4
 0.004484214186180477    8    6    8    5
 0.01223630757740605    8    6    8    6
 -0.0006199710688887395    8    7    1    1
 3.10297457108861e-05    8    7    2    1
 -8.53492497762181e-06    8    7    2    2
 7.482963911056391e-05    8    7    3    1
 -6.171716169466615e-05    8    7    3    2
 -0.0004003181402530296    8    7    3    3
 -0.008315878983174468    8    7    4    1
 -0.003182148418143578    8    7    4    2
 0.008432757072493914    8    7    4    3
 -0.0003861176805416032    8    7    4    4
 0.01254926915028236    8    7    5    1
 0.00773519945676939    8    7    5    2
 -0.01238630695603069    8    7    5    3
 1.885835890529773e-05    8    7    5    4
 -0.0002404242020312665    8    7    5    5
 0.001720165826352751    8    7    6    1
 -0.003287942853514512    8    7    6    2
 0.003168340424848587    8    7    6    3
 -0.0001368391833537347    8    7    6    4
 -0.0001209129934950335    8    7    6    5
 -0.0002465493829342501    8    7    6    6
 -0.01434455941932553    8    7    7    1
 0.006689281519693138    8    7    7    2
 0.003074006964460418    8    7    7    3
 -0.0001139775391083625    8    7    7    4
 8.98181237053206e-05    8    7    7    5
 -2.143882523799366e-05    8    7    7    6
 -0.0002931130154971214    8    7    7    7
 0.0002871079682660194    8    7    8    1
 -7.364379884668494e-06    8    7    8    2
 -4.273026448388775e-05    8    7    8    3
 0.004610973713202643    8    7    8    4
 -0.006795055349856589    8    7    8    5
 0.0001028498775923379    8    7    8    6
 0.01309069789424263    8    7    8    7
 0.4714424661539766    8    8    1    1
 -0.001495915807679321    8    8    2    1
 0.2881101887008145    8    8    2    2
 0.01271316314545279    8    8    3    1
 -0.02069827932100712    8    8    3    2
 0.4297697449395942    8    8    3    3
 0.0001710572502321741    8    8    4    1
 -0.0001879413635531377    8    8    4    2
 -7.139960863921394e-05    8    8    4    3
 0.3788033099294661    8    8    4    4
 0.0003852696573256041    8    8    5    1
 0.0004092254778680233    8    8    5    2
 -0.0001754232768003175    8    8    5    3
 0.003353826690698457    8    8    5    4
 0.3784602037006887    8    8    5    5
 -9.847414411935568e-05    8    8    6    1
 -0.0002456963343764828    8    8    6    2
 0.0001017639340426518    8    8    6    3
 0.04166243455412406    8    8    6    4
 0.03289248549013543    8    8    6    5
 0.3621689962532632    8    8    6    6
 0.0001530103562706322    8    8    7    1
 -6.450732061192471e-06    8    8    7    2
 1.466583021195489e-05    8    8    7    3
 0.0338009452042708    8    8    7    4
 -0.04267062700881975    8    8    7    5
 0.0006549178059653562    8    8    7    6
 0.3686574757664548    8    8    7    7
 0.01755580408840575    8    8    8    1
 0.006965812409075683    8    8    8    2
 -0.0006714001334892754    8    8    8    3
 -5.686950437640247e-05    8    8    8    4
 0.0003721883666830103    8    8    8    5
 -0.0001528481078281608    8    8    8    6
 8.237673674613777e-05    8    8    8    7
 0.4356266413157361    8    8    8    8
 -0.01934619952472878    9    1    1    1
 0.0004141013738234659    9    1    2    1
 -0.005487748928996589    9    1    2    2
 0.002864428689441866    9    1    3    1
 0.0006752852129832878    9    1    3    2
 -0.02335798697429268    9    1    3    3
 -4.341385890464318e-05    9    1    4    1
 -8.493055468580455e-06    9    1    4    2
 5.907881366793662e-06    9    1    4    3
 -0.01434605229378386    9    1    4    4
 -0.0001362516915170609    9    1    5    1
 -5.184990388998496e-05    9    1    5    2
 9.954299476929302e-05    9    1    5    3
 -0.0004719295523518334    9    1    5    4
 -0.01433239600549082    9    1    5    5
 -5.735331308264787e-05    9    1    6    1
 6.195477547461171e-05    9    1    6    2
 -1.690906337739659e-06    9    1    6    3
 -0.005876926785237858    9    1    6    4
 -0.004829023227941281    9    1    6    5
 -0.01228055381697902    9    1    6    6
 2.823971093680416e-05    9    1    7    1
 1.823050359123994e-05    9    1    7    2
 -4.082017779062945e-05    9    1    7    3
 -0.004970566273873022    9    1    7    4
 0.006035312544553546    9    1    7    5
 -8.44304898078818e-05    9    1    7    6
 -0.01335444957119761    9    1    7    7
 0.005076858825169541    9    1    8    1
 -0.0006299983626907797    9    1    8    2
 0.002560439834845177    9    1    8    3
 4.043884614077425e-05    9    1    8    4
 -7.737292707215539e-06    9    1    8    5
 7.307389597299874e-05    9    1    8    6
 -3.712061758154335e-06    9    1    8    7
 -0.003813863766505213    9    1    8    8