 &FCI NORB=  10,NELEC=10,MS2=0,
  ORBSYM=1,1,1,1,1,1,1,1,1,1,
  ISYM=1,
 &END
 0.4523605734710736    1    1    1    1
 -6.035423282751337e-09    1    1    2    1
 0.4511541169538341    1    1    2    2
 -0.0172402179244499    1    1    3    1
 -1.548286723100103e-09    1    1    3    2
 0.4321024643562671    1    1    3    3
 0.4251499906726004    1    1    4    4
 4.654490227940875e-15    1    1    5    1
 -1.79260683865881e-14    1    1    5    2
 -1.901271945703744e-15    1    1    5    3
 0.4251499906725998    1    1    5    5
 -5.606860907297065e-09    1    1    6    4
 5.552485142166759e-11    1    1    6    5
 0.4299451871387397    1    1    6    6
 9.809982769299319e-15    1    1    7    1
 5.678655966922171e-15    1    1    7    3
 -5.553954508770383e-11    1    1    7    4
 -5.606924380975641e-09    1    1    7    5
 0.4299451871387395    1    1    7    7
 -7.580876374225317e-10    1    1    8    1
 0.02956667606400198    1    1    8    2
 5.401911599888035e-09    1    1    8    3
 -2.214588779107459e-14    1    1    8    5
 0.4476586377363195    1    1    8    8
 0.09093916309135126    1    1    9    4
 0.001507016955857887    1    1    9    5
 -2.744789023989023e-09    1    1    9    6
 -7.263885111677149e-11    1    1    9    7
 1.030270483945504e-15    1    1    9    8
 0.3915589225734974    1    1    9    9
 1.02593527984101e-14    1    1   10    2
 2.509228170684154e-14    1    1   10    3
 -0.001507016955857952    1    1   10    4
 0.090939163091351    1    1   10    5
 7.272005538361335e-11    1    1   10    6
 -2.744451971996124e-09    1    1   10    7
 4.448669470692646e-14    1    1   10    8
 0.3915589225734968    1    1   10   10
 -6.035423277017348e-09    2    1    1    1
 0.2401371866551128    2    1    2    1
 5.911684624637511e-09    2    1    2    2
 -8.605390947130724e-10    2    1    3    1
 0.05484139827757938    2    1    3    2
 -6.048382794908219e-10    2    1    3    3
 2.696049529396384e-15    2    1    4    3
 -9.809838426692107e-10    2    1    4    4
 -1.398821787092199e-14    2    1    5    1
 -1.523473802161886e-14    2    1    5    2
 2.796701895969587e-13    2    1    5    3
 -2.238961088334461e-13    2    1    5    4
 -9.828606861895942e-10    2    1    5    5
 -1.04875807719098e-15    2    1    6    3
 0.2211903648756348    2    1    6    4
 -0.002190731970907941    2    1    6    5
 8.674302787159549e-10    2    1    6    6
 -3.131853271252853e-14    2    1    7    2
 6.106884099685049e-14    2    1    7    3
 0.002190731970907948    2    1    7    4
 0.2211903648756345    2    1    7    5
 1.958112525477038e-13    2    1    7    6
 8.692308350286308e-10    2    1    7    7
 0.01586886202001385    2    1    8    1
 4.022319731927576e-10    2    1    8    2
 -0.2122901329895408    2    1    8    3
 5.857585627021233e-14    2    1    8    5
 2.63382753304847e-13    2    1    8    7
 5.764249972250914e-10    2    1    8    8
 1.966912736688379e-15    2    1    9    3
 -6.819707200164421e-10    2    1    9    4
 -1.136101238279964e-11    2    1    9    5
 0.09698048019261432    2    1    9    6
 0.002568075500682734    2    1    9    7
 -1.964028154738731e-09    2    1    9    9
 5.100791657430766e-15    2    1   10    1
 7.093703981741764e-14    2    1   10    3
 1.125102007451856e-11    2    1   10    4
 -6.823954265425345e-10    2    1   10    5
 -0.002568075500682735    2    1   10    6
 0.09698048019261421    2    1   10    7
 -2.38571674622632e-14    2    1   10    9
 -1.964180567968858e-09    2    1   10   10
 0.4511541169538341    2    2    1    1
 5.911684649246359e-09    2    2    2    1
 0.4553259360210683    2    2    2    2
 0.002153379001731353    2    2    3    1
 1.384219366753548e-09    2    2    3    2
 0.4298350794131988    2    2    3    3
 0.4250731122357729    2    2    4    4
 -3.935296434648981e-15    2    2    5    2
 -1.285449975188254e-15    2    2    5    3
 0.4250731122357722    2    2    5    5
 5.46037521120087e-09    2    2    6    4
 -5.408917346050264e-11    2    2    6    5
 0.431592093645411    2    2    6    6
 9.306061890362539e-15    2    2    7    3
 5.407245134876344e-11    2    2    7    4
 5.46030285133035e-09    2    2    7    5
 0.4315920936454107    2    2    7    7
 2.646260809153925e-10    2    2    8    1
 0.01174428467295396    2    2    8    2
 -5.225983602162804e-09    2    2    8    3
 -2.021096835943338e-14    2    2    8    5
 0.444900516963894    2    2    8    8
 0.09546086033594521    2    2    9    4
 0.001581949187310404    2    2    9    5
 2.10774760374824e-09    2    2    9    6
 5.586033978110497e-11    2    2    9    7
 1.102251458255074e-15    2    2    9    8
 0.3910507266320883    2    2    9    9
 1.173226304259918e-14    2    2   10    2
 2.633912178409639e-14    2    2   10    3
 -0.001581949187310471    2    2   10    4
 0.09546086033594503    2    2   10    5
 -5.577471074967192e-11    2    2   10    6
 2.108102760308957e-09    2    2   10    7
 4.726742249684834e-14    2    2   10    8
 0.3910507266320876    2    2   10   10
 -0.01724021792444991    3    1    1    1
 -8.605390958294618e-10    3    1    2    1
 0.002153379001731352    3    1    2    2
 0.07292846548715902    3    1    3    1
 -1.137288707761704e-10    3    1    3    2
 -0.01521627712383718    3    1    3    3
 -0.01231851585175041    3    1    4    4
 -1.472926122789886e-15    3    1    5    1
 8.584817276594556e-14    3    1    5    2
 1.124139359097883e-15    3    1    5    3
 -0.0123185158517504    3    1    5    5
 -5.254616857796499e-10    3    1    6    4
 5.2015965489136e-12    3    1    6    5
 -0.006872726876529311    3    1    6    6
 -4.595929226132704e-15    3    1    7    1
 1.903546002318104e-14    3    1    7    2
 1.147871575227613e-14    3    1    7    3
 -5.20721249932664e-12    3    1    7    4
 -5.254861392485662e-10    3    1    7    5
 -0.006872726876529296    3    1    7    7
 1.593363577052074e-09    3    1    8    1
 -0.07044741010388662    3    1    8    2
 5.071577861988884e-10    3    1    8    3
 1.235433214215507e-14    3    1    8    5
 2.736182386021704e-15    3    1    8    7
 -0.02213507278625756    3    1    8    8
 0.007134079144049516    3    1    9    4
 0.0001182238528379146    3    1    9    5
 -1.702193113078829e-10    3    1    9    6
 -4.503244256696758e-12    3    1    9    7
 -0.0119012572168814    3    1    9    9
 5.920293260024546e-15    3    1   10    1
 1.760664612604701e-14    3    1   10    2
 4.172748351707163e-15    3    1   10    3
 -0.0001182238528379104    3    1   10    4
 0.007134079144049513    3    1   10    5
 4.511008995442261e-12    3    1   10    6
 -1.701878350092857e-10    3    1   10    7
 7.507670874903279e-15    3    1   10    8
 -0.01190125721688137    3    1   10   10
 -1.548286716176667e-09    3    2    1    1
 0.0548413982775794    3    2    2    1
 1.384219372567582e-09    3    2    2    2
 -1.137288751604129e-10    3    2    3    1
 0.06802498956921091    3    2    3    2
 -2.854144459836505e-10    3    2    3    3
 -3.226838688275654e-10    3    2    4    4
 8.038327683800795e-14    3    2    5    1
 -1.340403765476874e-15    3    2    5    2
 6.382252233773637e-14    3    2    5    3
 -4.772662706665696e-14    3    2    5    4
 -3.230838114404166e-10    3    2    5    5
 0.04744082545470613    3    2    6    4
 -0.0004698673611227189    3    2    6    5
 1.401893567639219e-10    3    2    6    6
 1.744949304927947e-14    3    2    7    1
 5.705797389935065e-15    3    2    7    2
 1.522095855631388e-14    3    2    7    3
 0.0004698673611227398    3    2    7    4
 0.04744082545470606    3    2    7    5
 4.217696884020044e-14    3    2    7    6
 1.405771340534743e-10    3    2    7    7
 -0.05623635598021447    3    2    8    1
 -1.56071904174309e-09    3    2    8    2
 -0.04835115452060833    3    2    8    3
 1.520582335253733e-14    3    2    8    5
 6.290394666136878e-14    3    2    8    7
 -1.105057723929312e-10    3    2    8    8
 3.631870810210354e-12    3    2    9    4
 4.931655195436653e-14    3    2    9    5
 0.01835069038250916    3    2    9    6
 0.0004859324092677056    3    2    9    7
 -5.584366522094839e-10    3    2    9    9
 1.692935937935576e-14    3    2   10    1
 7.197879741047642e-15    3    2   10    2
 1.876335023083691e-14    3    2   10    3
 -6.937162060343272e-14    3    2   10    4
 3.554163216447533e-12    3    2   10    5
 -0.0004859324092677024    3    2   10    6
 0.01835069038250913    3    2   10    7
 -5.577818683820922e-15    3    2   10    9
 -5.584725200449462e-10    3    2   10   10
 0.4321024643562671    3    3    1    1
 -6.048382813915638e-10    3    3    2    1
 0.4298350794131987    3    3    2    2
 -0.01521627712383718    3    3    3    1
 -2.854144435780769e-10    3    3    3    2
 0.4389926555021748    3    3    3    3
 0.397807086681033    3    3    4    4
 4.772627650857198e-15    3    3    5    1
 -1.833471859691577e-15    3    3    5    3
 0.3978070866810323    3    3    5    5
 -5.841188367116176e-10    3    3    6    4
 5.779898744837301e-12    3    3    6    5
 0.4007835580286369    3    3    6    6
 1.964811570795635e-14    3    3    7    1
 2.464948329184833e-15    3    3    7    2
 2.182326527550069e-15    3    3    7    3
 -5.791069551294478e-12    3    3    7    4
 -5.841670103104001e-10    3    3    7    5
 0.4007835580286365    3    3    7    7
 -2.886946005468743e-10    3    3    8    1
 0.01846135865647956    3    3    8    2
 6.660529514872942e-10    3    3    8    3
 -5.759556629892068e-14    3    3    8    5
 -9.161797163818348e-15    3    3    8    7
 0.4478900185261003    3    3    8    8
 0.07506545266097654    3    3    9    4
 0.00124396251420965    3    3    9    5
 -5.035411714429278e-10    3    3    9    6
 -1.329775794144637e-11    3    3    9    7
 0.3713678636193613    3    3    9    9
 2.231552350675189e-15    3    3   10    1
 1.430901733225228e-14    3    3   10    2
 2.228491161900832e-14    3    3   10    3
 -0.001243962514209721    3    3   10    4
 0.07506545266097642    3    3   10    5
 1.33644173523883e-11    3    3   10    6
 -5.032643617840964e-10    3    3   10    7
 2.917420471324385e-14    3    3   10    8
 0.3713678636193606    3    3   10   10
 0.06757410137525217    4    1    4    1
 -2.355213920277958e-10    4    1    4    2
 0.001085467966927296    4    1    4    3
 -6.690583063939983e-14    4    1    5    2
 -1.657872324803617e-09    4    1    6    1
 0.06891526407421475    4    1    6    2
 -8.465529321528274e-11    4    1    6    3
 -6.366428698342996e-15    4    1    6    5
 -1.641932412607863e-11    4    1    7    1
 0.0006825562785062191    4    1    7    2
 -8.415513107956235e-13    4    1    7    3
 -1.26172552240361e-10    4    1    8    4
 -9.033396318296196e-15    4    1    8    5
 0.009516085566196292    4    1    8    6
 9.425000451299836e-05    4    1    8    7
 0.02150502301684802    4    1    9    1
 -2.221698160530727e-10    4    1    9    2
 0.00798749755280119    4    1    9    3
 -2.223452560242316e-15    4    1    9    5
 -5.501708075357819e-15    4    1    9    7
 -1.088077617012521e-10    4    1    9    8
 -0.0003563748908701683    4    1   10    1
 3.669189752435197e-12    4    1   10    2
 -0.0001323664506880618    4    1   10    3
 1.273983076685729e-15    4    1   10    6
 1.800908080126138e-12    4    1   10    8
 -2.355213965086129e-10    4    2    4    1
 0.06313120649729771    4    2    4    2
 6.803904586426982e-12    4    2    4    3
 -6.678057731651162e-14    4    2    5    1
 -6.289950197756547e-15    4    2    5    3
 -4.323342362579652e-15    4    2    5    4
 0.06316145304858434    4    2    6    1
 1.624702611941421e-09    4    2    6    2
 0.007990003941873653    4    2    6    3
 -2.192647892127215e-15    4    2    6    5
 0.0006255689057718846    4    2    7    1
 1.608612602345104e-11    4    2    7    2
 7.913526022250584e-05    4    2    7    3
 -4.659155871416325e-15    4    2    7    6
 0.006799003166385026    4    2    8    4
 1.097377167068346e-10    4    2    8    6
 1.086677231556502e-12    4    2    8    7
 -2.192514288282938e-10    4    2    9    1
 0.02609947708419148    4    2    9    2
 9.14607224255625e-11    4    2    9    3
 -1.715275625868445e-15    4    2    9    5
 0.00341925265415575    4    2    9    8
 3.621853215262661e-12    4    2   10    1
 -0.0004325128269037521    4    2   10    2
 -1.519390196586612e-12    4    2   10    3
 1.423700296907488e-15    4    2   10    4
 -5.666284525841511e-05    4    2   10    8
 4.566015729050529e-15    4    2   10    9
 2.696049529396388e-15    4    3    2    1
 0.001085467966927298    4    3    4    1
 6.803904815830432e-12    4    3    4    2
 0.01724110860470261    4    3    4    3
 -6.228693800487399e-15    4    3    5    2
 -4.303400175585305e-11    4    3    6    1
 0.004492673845451734    4    3    6    2
 -4.34806612746624e-11    4    3    6    3
 2.57188434907551e-15    4    3    6    4
 2.10136819317777e-14    4    3    6    5
 -4.291793967196325e-13    4    3    7    1
 4.449671319828748e-05    4    3    7    2
 -4.301759931638498e-13    4    3    7    3
 2.579994537292372e-15    4    3    7    5
 4.610773519188251e-15    4    3    7    6
 -2.46721122703543e-15    4    3    8    3
 7.275565427498431e-11    4    3    8    4
 1.596423388008385e-14    4    3    8    5
 -0.01659883445749372    4    3    8    6
 -0.0001643995539601618    4    3    8    7
 0.003960398083482209    4    3    9    1
 4.393816330455338e-11    4    3    9    2
 0.002829940101359146    4    3    9    3
 1.131857639758086e-15    4    3    9    6
 2.729273845944827e-15    4    3    9    7
 4.332157345992581e-11    4    3    9    8
 -6.563054750964853e-05    4    3   10    1
 -7.299701361879991e-13    4    3   10    2
 -4.689693166107453e-05    4    3   10    3
 1.177757616931412e-15    4    3   10    4
 3.596337193039574e-15    4    3   10    6
 1.021522512414453e-15    4    3   10    7
 -7.153941498801892e-13    4    3   10    8
 3.448124719398342e-15    4    3   10    9
 0.4251499906726004    4    4    1    1
 -9.809838228926501e-10    4    4    2    1
 0.4250731122357729    4    4    2    2
 -0.01231851585175041    4    4    3    1
 -3.226838696575308e-10    4    4    3    2
 0.397807086681033    4    4    3    3
 0.424590917099132    4    4    4    4
 3.359873911435373e-15    4    4    5    1
 -1.423581868526838e-14    4    4    5    2
 -1.525609364405308e-15    4    4    5    3
 0.392218900088119    4    4    5    5
 -1.040640461894723e-09    4    4    6    4
 8.808724443750093e-12    4    4    6    5
 0.429755872443822    4    4    6    6
 8.143208491422258e-15    4    4    7    1
 5.133747175463617e-15    4    4    7    3
 -1.031382076098486e-11    4    4    7    4
 -8.933956525856654e-10    4    4    7    5
 0.0003302677153239038    4    4    7    6
 0.3964131945614307    4    4    7    7
 -3.871360312502488e-10    4    4    8    1
 0.02552675851157517    4    4    8    2
 8.736376326935549e-10    4    4    8    3
 -1.831796934012238e-14    4    4    8    5
 0.411040616167231    4    4    8    8
 0.08551242356472753    4    4    9    4
 0.001275717733382428    4    4    9    5
 -6.973727112930544e-10    4    4    9    6
 -1.723367592820654e-11    4    4    9    7
 0.3906650275839629    4    4    9    9
 9.630298014966939e-15    4    4   10    2
 2.124936798625547e-14    4    4   10    3
 -0.001417086630972174    4    4   10    4
 0.07698168395759851    4    4   10    5
 1.777689163950415e-11    4    4   10    6
 -6.248059198656324e-10    4    4   10    7
 3.769500653986777e-14    4    4   10    8
 -0.0004144597355897122    4    4   10    9
 0.36566181133479    4    4   10   10
 4.654490227940863e-15    5    1    1    1
 -1.3988217870922e-14    5    1    2    1
 -1.47292612278988e-15    5    1    3    1
 8.038327683800796e-14    5    1    3    2
 4.772627650857195e-15    5    1    3    3
 -6.678127208698265e-14    5    1    4    2
 3.359873911435377e-15    5    1    4    4
 0.06757410137525204    5    1    5    1
 -2.360817536879654e-10    5    1    5    2
 0.001085467966927296    5    1    5    3
 2.81372813829402e-15    5    1    5    5
 1.642077471733231e-11    5    1    6    1
 -0.0006825562785062173    5    1    6    2
 8.355071662896697e-13    5    1    6    3
 -1.446175214708373e-14    5    1    6    4
 1.880950306169844e-15    5    1    6    6
 -1.657865720883386e-09    5    1    7    1
 0.06891526407421469    5    1    7    2
 -8.468170216548723e-11    5    1    7    3
 -2.109352984443776e-14    5    1    7    5
 2.056940390097464e-15    5    1    7    7
 -1.472678368875679e-15    5    1    8    1
 1.942825687180391e-14    5    1    8    2
 2.011288148276864e-14    5    1    8    3
 -8.980731197767717e-15    5    1    8    4
 -1.262481812342765e-10    5    1    8    5
 -9.425000451301911e-05    5    1    8    6
 0.009516085566196271    5    1    8    7
 6.079115280245895e-15    5    1    8    8
 0.0003563748908701631    5    1    9    1
 -3.696610466253626e-12    5    1    9    2
 0.0001323664506880631    5    1    9    3
 -1.994058043721754e-15    5    1    9    4
 -8.410122076739703e-15    5    1    9    6
 -1.805752634852967e-12    5    1    9    8
 3.242769544257297e-15    5    1    9    9
 0.02150502301684804    5    1   10    1
 -2.222757867228895e-10    5    1   10    2
 0.007987497552801186    5    1   10    3
 -4.198145667702305e-15    5    1   10    5
 -1.265938928742717e-14    5    1   10    7
 -1.088261665658882e-10    5    1   10    8
 3.370919621659389e-15    5    1   10   10
 -1.792606838658811e-14    5    2    1    1
 -1.523473802161886e-14    5    2    2    1
 -3.935296434648984e-15    5    2    2    2
 8.584817276594559e-14    5    2    3    1
 -1.340403765476871e-15    5    2    3    2
 -6.690523418285775e-14    5    2    4    1
 -6.228667000967679e-15    5    2    4    3
 -1.423581868526838e-14    5    2    4    4
 -2.360817605302848e-10    5    2    5    1
 0.06313120649729762    5    2    5    2
 6.751568319839412e-12    5    2    5    3
 -2.28487114882377e-14    5    2    5    5
 -0.0006255689057718829    5    2    6    1
 -1.609661980436682e-11    5    2    6    2
 -7.913526022248864e-05    5    2    6    3
 -1.311908760777399e-14    5    2    6    4
 -1.167737469087664e-14    5    2    6    6
 0.06316145304858424    5    2    7    1
 1.624656882103499e-09    5    2    7    2
 0.007990003941873653    5    2    7    3
 -1.52195218308608e-14    5    2    7    5
 -2.101992511342528e-14    5    2    7    7
 1.550364866596978e-14    5    2    8    1
 -7.499683640222981e-15    5    2    8    2
 1.524748503209055e-14    5    2    8    3
 0.006799003166385011    5    2    8    5
 -1.087076544910694e-12    5    2    8    6
 1.097359697956133e-10    5    2    8    7
 -9.516275502980373e-15    5    2    8    8
 -3.647020425928336e-12    5    2    9    1
 0.0004325128269037482    5    2    9    2
 1.511229847180765e-12    5    2    9    3
 -1.252783326546818e-15    5    2    9    4
 -5.088852312283129e-15    5    2    9    6
 5.66628452584127e-05    5    2    9    8
 -1.230088141559186e-14    5    2    9    9
 -2.193485544303909e-10    5    2   10    1
 0.02609947708419146    5    2   10    2
 9.142878532546914e-11    5    2   10    3
 -1.555036858886105e-15    5    2   10    5
 -5.026745111952955e-15    5    2   10    7
 0.003419252654155738    5    2   10    8
 -3.174671647814885e-15    5    2   10   10
 -1.901271945703617e-15    5    3    1    1
 2.796701895969587e-13    5    3    2    1
 -1.285449975188255e-15    5    3    2    2
 1.124139359097883e-15    5    3    3    1
 6.382252233773636e-14    5    3    3    2
 -1.833471859691539e-15    5    3    3    3
 -6.290062341104051e-15    5    3    4    2
 -1.525609364405311e-15    5    3    4    4
 0.001085467966927295    5    3    5    1
 6.75156926527066e-12    5    3    5    2
 0.01724110860470258    5    3    5    3
 -2.10500100312447e-15    5    3    5    5
 4.234190352375628e-13    5    3    6    1
 -4.449671319826928e-05    5    3    6    2
 4.311070256105472e-13    5    3    6    3
 2.459804772264639e-13    5    3    6    4
 -2.64543113093589e-15    5    3    6    5
 -1.184391733113432e-15    5    3    6    6
 -4.305913613736341e-11    5    3    7    1
 0.00449267384545173    5    3    7    2
 -4.347653437917082e-11    5    3    7    3
 2.63884944270292e-15    5    3    7    4
 2.667084480120924e-13    5    3    7    5
 8.036544148876516e-15    5    3    7    7
 2.295224947834881e-14    5    3    8    1
 1.929828210493745e-15    5    3    8    2
 -2.556561134818206e-13    5    3    8    3
 1.593212455511933e-14    5    3    8    4
 7.288937809986178e-11    5    3    8    5
 0.0001643995539601621    5    3    8    6
 -0.0165988344574937    5    3    8    7
 -1.015374643811618e-14    5    3    8    8
 6.563054750965198e-05    5    3    9    1
 7.259610528650839e-13    5    3    9    2
 4.689693166107459e-05    5    3    9    3
 1.071568702050895e-13    5    3    9    6
 2.983493285444041e-15    5    3    9    7
 7.209027056237382e-13    5    3    9    8
 -1.561422872923605e-15    5    3    9    9
 0.003960398083482205    5    3   10    1
 4.392258691307285e-11    5    3   10    2
 0.002829940101359145    5    3   10    3
 2.117911937330239e-15    5    3   10    5
 -2.87269312863011e-15    5    3   10    6
 1.134812767852834e-13    5    3   10    7
 4.334286661754226e-11    5    3   10    8
 5.334904535332076e-15    5    3   10   10
 -2.238979316150287e-13    5    4    2    1
 -4.772714090431833e-14    5    4    3    2
 -4.32334236257965e-15    5    4    4    2
 0.01618600850550608    5    4    5    4
 -5.43939254670255e-15    5    4    6    1
 -1.229484694415466e-15    5    4    6    2
 2.033251161122511e-14    5    4    6    3
 5.155021784137752e-13    5    4    6    4
 -7.37864587736865e-11    5    4    6    5
 -0.0003302677153238925    5    4    6    6
 -7.365404916378585e-11    5    4    7    4
 -9.447954508475107e-13    5    4    7    5
 0.01667133894119539    5    4    7    6
 0.0003302677153239055    5    4    7    7
 -1.794025744054283e-14    5    4    8    1
 1.889828397193696e-13    5    4    8    3
 -1.371910579643191e-15    5    4    8    4
 4.584112446389626e-15    5    4    8    6
 -1.099064699647627e-15    5    4    9    1
 -1.734235675846827e-15    5    4    9    2
 7.068444879483013e-05    5    4    9    4
 0.004265369803564445    5    4    9    5
 -3.298411060482695e-13    5    4    9    6
 -3.615256019991379e-11    5    4    9    7
 -2.38328159746147e-15    5    4    9    8
 0.0004144597355897218    5    4    9    9
 0.00426536980356446    5    4   10    4
 -7.068444879484059e-05    5    4   10    5
 -3.616002745938127e-11    5    4   10    6
 1.52365357545856e-13    5    4   10    7
 0.01250160812458609    5    4   10    9
 -0.0004144597355897063    5    4   10   10
 0.4251499906725996    5    5    1    1
 -9.828606943021405e-10    5    5    2    1
 0.4250731122357722    5    5    2    2
 -0.0123185158517504    5    5    3    1
 -3.230838186348179e-10    5    5    3    2
 0.3978070866810323    5    5    3    3
 0.392218900088119    5    5    4    4
 2.813728138294041e-15    5    5    5    1
 -2.284871148823769e-14    5    5    5    2
 -2.105001003124321e-15    5    5    5    3
 0.4245909170991306    5    5    5    5
 -8.949933367484668e-10    5    5    6    4
 1.031936571944901e-11    5    5    6    5
 0.3964131945614304    5    5    6    6
 -2.715747094972715e-15    5    5    7    1
 -2.365351506264998e-15    5    5    7    2
 4.580112713190479e-14    5    5    7    3
 -8.90387870202929e-12    5    5    7    4
 -1.042629348451589e-09    5    5    7    5
 -0.000330267715323893    5    5    7    6
 0.4297558724438209    5    5    7    7
 -3.872865626509517e-10    5    5    8    1
 0.02552675851157512    5    5    8    2
 8.752217888169488e-10    5    5    8    3
 -2.105728233330895e-14    5    5    8    5
 9.185693684115057e-15    5    5    8    7
 0.4110406161672304    5    5    8    8
 0.07698168395759843    5    5    9    4
 0.001417086630972103    5    5    9    5
 -6.258019790897127e-10    5    5    9    6
 -1.773844344014083e-11    5    5    9    7
 0.3656618113347901    5    5    9    9
 -2.137973148257021e-15    5    5   10    1
 6.163712405046968e-15    5    5   10    2
 2.205349455147928e-14    5    5   10    3
 -0.001275717733382499    5    5   10    4
 0.0855124235647272    5    5   10    5
 1.731727559659994e-11    5    5   10    6
 -6.9786048371523e-10    5    5   10    7
 3.292871432864204e-14    5    5   10    8
 0.0004144597355897253    5    5   10    9
 0.3906650275839615    5    5   10   10
 -1.65787231997204e-09    6    1    4    1
 0.06316145304858431    6    1    4    2
 -4.303400276055715e-11    6    1    4    3
 1.64207739721314e-11    6    1    5    1
 -0.000625568905771885    6    1    5    2
 4.2341884752961e-13    6    1    5    3
 -5.439392546702554e-15    6    1    5    4
 0.06328423290091771    6    1    6    1
 1.693238053096176e-10    6    1    6    2
 0.006869703832295069    6    1    6    3
 -1.875875429791109e-15    6    1    6    5
 5.864829023226203e-14    6    1    7    2
 -4.33318486284978e-15    6    1    7    6
 0.008008770398021494    6    1    8    4
 -7.932112851512799e-05    6    1    8    5
 -5.980861426332386e-11    6    1    8    6
 7.796138680373625e-15    6    1    8    7
 -6.892202999826946e-10    6    1    9    1
 0.02610842077577174    6    1    9    2
 -7.225432470583956e-11    6    1    9    3
 -2.171051484497218e-15    6    1    9    5
 0.003894209449133655    6    1    9    8
 1.82605448687997e-11    6    1   10    1
 -0.0006913597006594513    6    1   10    2
 1.917235765957732e-12    6    1   10    3
 1.30851525048942e-15    6    1   10    4
 -0.0001031199666261204    6    1   10    8
 4.183856373547242e-15    6    1   10    9
 0.06891526407421476    6    2    4    1
 1.624702613298949e-09    6    2    4    2
 0.004492673845451733    6    2    4    3
 -0.0006825562785062178    6    2    5    1
 -1.609662020651717e-11    6    2    5    2
 -4.449671319826925e-05    6    2    5    3
 -1.229484694415466e-15    6    2    5    4
 1.693238147911103e-10    6    2    6    1
 0.07106214152594321    6    2    6    2
 1.31829454335167e-10    6    2    6    3
 -4.316549809899531e-15    6    2    6    5
 5.852465506038294e-14    6    2    7    1
 5.389855088292689e-15    6    2    7    3
 -2.134417935867112e-15    6    2    7    4
 9.628708616525887e-11    6    2    8    4
 -9.539076038127866e-13    6    2    8    5
 0.006755002465662164    6    2    8    6
 0.02350702635809322    6    2    9    1
 5.591261001244098e-10    6    2    9    2
 0.00805105607769396    6    2    9    3
 -2.239512356902911e-15    6    2    9    5
 -5.218150556030015e-15    6    2    9    7
 1.662652901415649e-12    6    2    9    8
 -0.0006224739077825257    6    2   10    1
 -1.479375427119454e-11    6    2   10    2
 -0.0002131946534672172    6    2   10    3
 1.459143293239119e-15    6    2   10    6
 -4.279809251832113e-14    6    2   10    8
 -1.048758077190979e-15    6    3    2    1
 -8.46552920849616e-11    6    3    4    1
 0.007990003941873653    6    3    4    2
 -4.348066082105523e-11    6    3    4    3
 8.355070846043392e-13    6    3    5    1
 -7.913526022248872e-05    6    3    5    2
 4.311070458171234e-13    6    3    5    3
 2.033251161122512e-14    6    3    5    4
 0.006869703832295069    6    3    6    1
 1.318294549171872e-10    6    3    6    2
 0.01587105916453303    6    3    6    3
 -1.003404790659687e-15    6    3    6    4
 5.318794919236544e-15    6    3    7    2
 4.501908172766751e-15    6    3    7    4
 1.459649693526082e-15    6    3    7    6
 -0.01504817145612811    6    3    8    4
 0.0001490413487548605    6    3    8    5
 -5.744955176210512e-11    6    3    8    6
 -1.418096588710871e-14    6    3    8    7
 -3.519349423372203e-11    6    3    9    1
 0.003751185398926005    6    3    9    2
 -2.850933638932719e-11    6    3    9    3
 7.110786614003204e-15    6    3    9    5
 1.470341886877782e-15    6    3    9    7
 -0.005293403423086805    6    3    9    8
 9.33895516953566e-13    6    3   10    1
 -9.933264201587196e-05    6    3   10    2
 7.561586019788168e-13    6    3   10    3
 3.351696573964704e-15    6    3   10    4
 1.489954929855915e-15    6    3   10    6
 0.0001401710902963197    6    3   10    8
 1.02797542197474e-14    6    3   10    9
 -5.60686092060898e-09    6    4    1    1
 0.2211903648756348    6    4    2    1
 5.46037525646933e-09    6    4    2    2
 -5.254616871149725e-10    6    4    3    1
 0.04744082545470614    6    4    3    2
 -5.841188077395164e-10    6    4    3    3
 2.57188434907551e-15    6    4    4    3
 -1.040640463292142e-09    6    4    4    4
 -1.446175214708373e-14    6    4    5    1
 -1.311908760777399e-14    6    4    5    2
 2.459804772264638e-13    6    4    5    3
 5.155033318211865e-13    6    4    5    4
 -8.949933037995998e-10    6    4    5    5
 -1.003404790659688e-15    6    4    6    3
 0.2274964518735073    6    4    6    4
 -0.002091770538745875    6    4    6    5
 8.81801120112356e-10    6    4    6    6
 -2.709529823043093e-14    6    4    7    2
 5.382051466578598e-14    6    4    7    3
 0.002091770538745889    6    4    7    4
 0.1949007147771882    6    4    7    5
 8.219254829289245e-13    6    4    7    6
 7.55121436591484e-10    6    4    7    7