 &FCI NORB=  10,NELEC=10,MS2=0,
  ORBSYM=1,1,1,1,1,1,1,1,1,1,
  ISYM=1,
 &END
 0.6973126640792469    1    1    1    1
 0.01114831166768307    2    1    1    1
 0.0006404530011809916    2    1    2    1
 0.2106237826012591    2    2    1    1
 -0.007121419788231404    2    2    2    1
 0.6978877854012276    2    2    2    2
 0.01575999425244569    3    1    1    1
 0.003333997756958789    3    1    2    1
 -0.03025449977933337    3    1    2    2
 0.06786721505793186    3    1    3    1
 0.02881739773550536    3    2    1    1
 -0.001562068093808813    3    2    2    1
 -0.01771114387110967    3    2    2    2
 -0.004673481685754428    3    2    3    1
 0.0661261285794765    3    2    3    2
 0.4337625215746226    3    3    1    1
 0.0004437574596594901    3    3    2    1
 0.4302448056742676    3    3    2    2
 -0.01180513229941477    3    3    3    1
 0.01031499160721168    3    3    3    2
 0.4394561706942698    3    3    3    3
 0.00221747073489704    4    1    1    1
 -0.0007797071524634104    4    1    2    1
 0.006916529029650769    4    1    2    2
 -0.02853683483349188    4    1    3    1
 2.516118595449576e-05    4    1    3    2
 0.003703028160455806    4    1    3    3
 0.06791186385709481    4    1    4    1
 -0.0003302571065824124    4    2    1    1
 -0.0005235960938855019    4    2    2    1
 0.005579341166068709    4    2    2    2
 -0.001072038661166486    4    2    3    1
 0.02909493623107285    4    2    3    2
 0.0001986235917389936    4    2    3    3
 -0.001464628510027067    4    2    4    1
 0.06923355184141021    4    2    4    2
 -0.09516207423766222    4    3    1    1
 -0.003357531473294062    4    3    2    1
 0.09659898461065611    4    3    2    2
 -0.008824646674489081    4    3    3    1
 -0.009893874490480993    4    3    3    2
 -0.0004678401182868071    4    3    3    3
 0.001023434273213706    4    3    4    1
 0.001120126186786205    4    3    4    2
 0.0565450638522775    4    3    4    3
 0.4354970154713909    4    4    1    1
 0.001779979203782081    4    4    2    1
 0.4408937279964009    4    4    2    2
 -0.009286376954770029    4    4    3    1
 0.007699631583294704    4    4    3    2
 0.4143796168856653    4    4    3    3
 0.006227155079765851    4    4    4    1
 0.003933615376253836    4    4    4    2
 0.001667638356452553    4    4    4    3
 0.4482492687550513    4    4    4    4
 0.008864136304095504    5    1    1    1
 -0.000265456169423802    5    1    2    1
 0.001685176757766067    5    1    2    2
 -0.03140024379289183    5    1    3    1
 -0.001191141412676254    5    1    3    2
 0.002160033766297294    5    1    3    3
 0.0317143030088437    5    1    4    1
 0.0001736366521027094    5    1    4    2
 -0.0004414862661931241    5    1    4    3
 0.005624667774700888    5    1    4    4
 0.07096415416072292    5    1    5    1
 0.01178767252026346    5    2    1    1
 -0.001047709993137548    5    2    2    1
 0.003243407708982326    5    2    2    2
 -0.004079213238194347    5    2    3    1
 0.03112383324049713    5    2    3    2
 0.008650516618098385    5    2    3    3
 0.003354112723133235    5    2    4    1
 -0.03142785647696925    5    2    4    2
 -0.001136513012660737    5    2    4    3
 0.007774551580039587    5    2    4    4
 0.0004651980545105597    5    2    5    1
 0.06629061436900598    5    2    5    2
 -0.1035687365505237    5    3    1    1
 -0.004193960143624519    5    3    2    1
 0.1034981826527928    5    3    2    2
 -0.01183396314917146    5    3    3    1
 -0.008356803558649243    5    3    3    2
 0.0001242191008815914    5    3    3    3
 0.00279789110039988    5    3    4    1
 0.002991072143743237    5    3    4    2
 0.04216513670208413    5    3    4    3
 -0.005465715033803146    5    3    4    4
 -0.0002852659827339726    5    3    5    1
 -0.002248996309060732    5    3    5    2
 0.06275737479863612    5    3    5    3
 0.1069886281269258    5    4    1    1
 0.003978691816923954    5    4    2    1
 -0.1053253413591572    5    4    2    2
 0.009565833095921163    5    4    3    1
 0.009921506148132198    5    4    3    2
 0.007904841969974078    5    4    3    3
 -1.649263489930577e-06    5    4    4    1
 -0.0006224642272127779    5    4    4    2
 -0.04314227726458032    5    4    4    3
 -0.0003957238232051911    5    4    4    4
 0.002380515129905043    5    4    5    1
 0.001553978834057327    5    4    5    2
 -0.04693258353180257    5    4    5    3
 0.06527722626178201    5    4    5    4
 0.4468922872932471    5    5    1    1
 0.002181133514879356    5    5    2    1
 0.4297246339824783    5    5    2    2
 -0.008428230906806366    5    5    3    1
 0.007595442011934023    5    5    3    2
 0.415493573241937    5    5    3    3
 0.00628021446934675    5    5    4    1
 0.001478406569021504    5    5    4    2
 -0.01024961717234391    5    5    4    3
 0.4208384460622374    5    5    4    4
 0.007693824542951104    5    5    5    1
 0.009428472909986487    5    5    5    2
 -0.004182278509245697    5    5    5    3
 0.005045000487749331    5    5    5    4
 0.4487222454415739    5    5    5    5
 -0.00753053652387208    6    1    1    1
 0.0006448534678460746    6    1    2    1
 -0.004125281328018497    6    1    2    2
 0.02773920805869153    6    1    3    1
 -0.0007509915631588696    6    1    3    2
 -0.005228885220808565    6    1    3    3
 0.03329988602687809    6    1    4    1
 -0.0006253326668088153    6    1    4    2
 0.001074993654773203    6    1    4    3
 -0.005568983939651938    6    1    4    4
 -0.02934124305030714    6    1    5    1
 0.0003800856812113857    6    1    5    2
 0.0004522994808931654    6    1    5    3
 -0.0003708872773400877    6    1    5    4
 -0.007008238654991058    6    1    5    5
 0.06799683943424457    6    1    6    1
 -0.009574124295993568    6    2    1    1
 0.001017984361789384    6    2    2    1
 -0.003246498511686823    6    2    2    2
 0.004244143956594783    6    2    3    1
 -0.02755895103483755    6    2    3    2
 -0.008769193653110052    6    2    3    3
 0.001469550938019461    6    2    4    1
 -0.03339068614756464    6    2    4    2
 0.001806220734570767    6    2    4    3
 -0.009046855884156534    6    2    4    4
 -0.002799789644312704    6    2    5    1
 0.02893216430151039    6    2    5    2
 -0.0002000356614378731    6    2    5    3
 -0.0005121081739848339    6    2    5    4
 -0.006645741327869579    6    2    5    5
 0.003868740576387782    6    2    6    1
 0.06774946510020582    6    2    6    2
 0.09115424069470056    6    3    1    1
 0.003588021265868817    6    3    2    1
 -0.09087692415602031    6    3    2    2
 0.009923478708780626    6    3    3    1
 0.007916507866613142    6    3    3    2
 0.0004151176324337944    6    3    3    3
 0.0006600118024638927    6    3    4    1
 0.0005583499484640306    6    3    4    2
 -0.03681649558725635    6    3    4    3
 -0.007945007713143604    6    3    4    4
 -5.718847864876485e-05    6    3    5    1
 -0.001005806536590467    6    3    5    2
 -0.04026299639724815    6    3    5    3
 0.03722027605775485    6    3    5    4
 0.009764739105377795    6    3    5    5
 0.002672755269173249    6    3    6    1
 -0.003509072978829274    6    3    6    2
 0.05099029660447102    6    3    6    3
 0.111710477772497    6    4    1    1
 0.004263107742335772    6    4    2    1
 -0.1127567126230536    6    4    2    2
 0.01031226920481151    6    4    3    1
 0.009628354229062828    6    4    3    2
 -0.005418035993708038    6    4    3    3
 -0.001774178487754069    6    4    4    1
 -0.003594806410264715    6    4    4    2
 -0.04596800325195851    6    4    4    3
 -0.001873392409286829    6    4    4    4
 0.0009781019145522266    6    4    5    1
 0.003369883589530588    6    4    5    2
 -0.03932028037819931    6    4    5    3
 0.05051213811012161    6    4    5    4
 -0.003302683933455656    6    4    5    5
 -0.001802293280344906    6    4    6    1
 0.0005936594450646565    6    4    6    2
 0.04348827251856243    6    4    6    3
 0.07072538276395138    6    4    6    4
 -0.1005877980978094    6    5    1    1
 -0.003537761649120323    6    5    2    1
 0.0966464236407612    6    5    2    2
 -0.007668909344125225    6    5    3    1
 -0.009616156019749038    6    5    3    2
 -0.009107927278042476    6    5    3    3
 0.001009585850203196    6    5    4    1
 0.001744192771733211    6    5    4    2
 0.03654859160314752    6    5    4    3
 0.006995233064952896    6    5    4    4
 -0.003538782622240092    6    5    5    1
 -0.002227776536973437    6    5    5    2
 0.0438415446401904    6    5    5    3
 -0.04428176110228625    6    5    5    4
 -0.005948032264262707    6    5    5    5
 0.002684319392122903    6    5    6    1
 9.421610086497933e-05    6    5    6    2
 -0.03831826262117082    6    5    6    3
 -0.04686918835671122    6    5    6    4
 0.05857326101108212    6    5    6    5
 0.4353380141747671    6    6    1    1
 0.001997347343408887    6    6    2    1
 0.4327291430869741    6    6    2    2
 -0.007017663667958111    6    6    3    1
 0.005569350540818389    6    6    3    2
 0.4097029087250181    6    6    3    3
 0.001935335529592223    6    6    4    1
 0.003666806728951641    6    6    4    2
 0.007145591352144213    6    6    4    3
 0.4176250023314553    6    6    4    4
 0.00623973377727944    6    6    5    1
 0.004982539766047967    6    6    5    2
 -0.006945964823814176    6    6    5    3
 -0.005963935076347851    6    6    5    4
 0.4157687491362748    6    6    5    5
 -0.008178879252907348    6    6    6    1
 -0.008857060216945193    6    6    6    2
 0.001062412479158371    6    6    6    3
 -5.424261773808048e-05    6    6    6    4
 -0.002483471102089681    6    6    6    5
 0.4407851402862796    6    6    6    6
 -0.0008596571086193769    7    1    1    1
 0.001631694984991676    7    1    2    1
 -0.0128774097126687    7    1    2    2
 0.03081027036342675    7    1    3    1
 -0.003294932821996004    7    1    3    2
 -0.01030966522217889    7    1    3    3
 0.02970671008418719    7    1    4    1
 -0.0007672935704841641    7    1    4    2
 -0.001375979585544352    7    1    4    3
 -0.007677915643008192    7    1    4    4
 0.02821655900126433    7    1    5    1
 -0.0002161798063345445    7    1    5    2
 -0.001583117718589877    7    1    5    3
 0.003157889289264507    7    1    5    4
 -0.006368114549602136    7    1    5    5
 0.03045006203832937    7    1    6    1
 0.002656493387118134    7    1    6    2
 0.003455374327626329    7    1    6    3
 0.001443690115041253    7    1    6    4
 -0.001994513311371857    7    1    6    5
 -0.007911829952186448    7    1    6    6
 0.06479318414426265    7    1    7    1
 0.002285665415404148    7    2    1    1
 0.0006131100197347426    7    2    2    1
 -0.01132726192176301    7    2    2    2
 0.0005602878050056805    7    2    3    1
 -0.03113390122354031    7    2    3    2
 -3.986601221774776e-05    7    2    3    3
 0.002431867632130727    7    2    4    1
 -0.02961056227379972    7    2    4    2
 -0.002136374679959844    7    2    4    3
 -0.004513465862143271    7    2    4    4
 0.003990677306725922    7    2    5    1
 -0.02924440877180156    7    2    5    2
 -0.002828703348434184    7    2    5    3
 0.00213269005544211    7    2    5    4
 -0.004519215582685364    7    2    5    5
 0.0001865075110604287    7    2    6    1
 -0.02998057948723028    7    2    6    2
 0.004040053195354447    7    2    6    3
 0.002793900732120646    7    2    6    4
 -0.002226591231765371    7    2    6    5
 -0.001995441743081184    7    2    6    6
 0.002659759682449792    7    2    7    1
 0.07094880583170089    7    2    7    2
 0.1026298917697733    7    3    1    1
 0.003307229483359128    7    3    2    1
 -0.1017829714578882    7    3    2    2
 0.007124135658622056    7    3    3    1
 0.01301792152574039    7    3    3    2
 0.003006347648678658    7    3    3    3
 0.001160521987882999    7    3    4    1
 0.0002345660059084499    7    3    4    2
 -0.0416782852089185    7    3    4    3
 -0.006703407806913609    7    3    4    4
 0.003946039964053446    7    3    5    1
 0.003321387812638946    7    3    5    2
 -0.04499273205159684    7    3    5    3
 0.03621084709393656    7    3    5    4
 -0.002560630124231639    7    3    5    5
 -0.0004720097289038411    7    3    6    1
 -0.0005970819732413906    7    3    6    2
 0.03939022745046476    7    3    6    3
 0.04467291938949944    7    3    6    4
 -0.04035804299357982    7    3    6    5
 0.007212901981832495    7    3    6    6
 0.003714985750283987    7    3    7    1
 0.0001276678224180406    7    3    7    2
 0.06100689773511718    7    3    7    3
 0.09992618421435011    7    4    1    1
 0.003905175882517184    7    4    2    1
 -0.1005487418272758    7    4    2    2
 0.009478013214684234    7    4    3    1
 0.007940666141117166    7    4    3    2
 -0.006306521945928958    7    4    3    3
 -0.001775809859771182    7    4    4    1
 -0.002628757163254283    7    4    4    2
 -0.04089406405834901    7    4    4    3
 -0.001564608336866343    7    4    4    4
 0.001221668759390958    7    4    5    1
 0.001584182627206952    7    4    5    2
 -0.04037090601759758    7    4    5    3
 0.0448435877221767    7    4    5    4
 0.009669688705838045    7    4    5    5
 -0.001498733457781102    7    4    6    1
 -0.0004732345040863716    7    4    6    2
 0.03641824737227641    7    4    6    3
 0.04778931701687535    7    4    6    4
 -0.03169718115633637    7    4    6    5
 0.007878990428263127    7    4    6    6
 0.001297066378725873    7    4    7    1
 0.003829922014808134    7    4    7    2
 0.04394979655070422    7    4    7    3
 0.0597384051466901    7    4    7    4
 0.09357258923952225    7    5    1    1
 0.003723802661300971    7    5    2    1
 -0.1005048240021132    7    5    2    2
 0.009738918235398622    7    5    3    1
 0.007926318781061915    7    5    3    2
 -0.009444422544012572    7    5    3    3
 -0.0002588261734288548    7    5    4    1
 -0.0005972260397227463    7    5    4    2
 -0.0363659175986053    7    5    4    3
 0.002858397466180436    7    5    4    4
 0.00137433006191673    7    5    5    1
 -0.0001638529110114169    7    5    5    2
 -0.0427439577552472    7    5    5    3
 0.04410145616362541    7    5    5    4
 0.0001935509207222388    7    5    5    5
 0.0002351218397544393    7    5    6    1
 -0.001310894189475268    7    5    6    2
 0.02798820703559414    7    5    6    3
 0.04303432718754908    7    5    6    4
 -0.04006287694777116    7    5    6    5
 -0.009175877856498706    7    5    6    6
 0.003067539458536602    7    5    7    1
 0.003257551699001996    7    5    7    2
 0.04203813404712817    7    5    7    3
 0.04096071310270585    7    5    7    4
 0.0572209575367882    7    5    7    5
 0.1031163137057657    7    6    1    1
 0.00372020344590235    7    6    2    1
 -0.09938256945414288    7    6    2    2
 0.008966212550972992    7    6    3    1
 0.01018082870320064    7    6    3    2
 0.008715471935779069    7    6    3    3
 -0.002543558489126527    7    6    4    1
 0.0004596773521621226    7    6    4    2
 -0.03087746782389533    7    6    4    3
 0.008065742741528929    7    6    4    4
 0.0005343916258531385    7    6    5    1
 0.001154754434066453    7    6    5    2
 -0.04141952388255288    7    6    5    3
 0.04249651105425044    7    6    5    4
 -0.001216263570091079    7    6    5    5
 -0.001400755056994989    7    6    6    1
 -0.001347512050454788    7    6    6    2
 0.03869822063128902    7    6    6    3
 0.04829426529884083    7    6    6    4
 -0.04245040016575723    7    6    6    5
 0.002557566424580308    7    6    6    6
 0.0008854426344455472    7    6    7    1
 0.001973753009648013    7    6    7    2
 0.04389753380959838    7    6    7    3
 0.04276586344488757    7    6    7    4
 0.04200669113602298    7    6    7    5
 0.06092669399816438    7    6    7    6
 0.4231122794856576    7    7    1    1
 0.001441049910460142    7    7    2    1
 0.4447918884429208    7    7    2    2
 -0.008250699079980932    7    7    3    1
 0.006302719799413312    7    7    3    2
 0.4115089441628665    7    7    3    3
 0.003322427929800805    7    7    4    1
 0.004437554545070067    7    7    4    2
 0.01175340783179856    7    7    4    3
 0.4159776550694473    7    7    4    4
 0.004311501827411805    7    7    5    1
 0.008373382265554579    7    7    5    2
 0.01099897029011665    7    7    5    3
 0.002757301583023187    7    7    5    4
 0.4153522940178256    7    7    5    5
 -0.006043475966509147    7    7    6    1
 -0.005938347554323134    7    7    6    2
 0.003006757790171843    7    7    6    3
 0.001373832723876603    7    7    6    4
 0.008691320631808767    7    7    6    5
 0.4123165199418202    7    7    6    6
 -0.007329758190966548    7    7    7    1
 -0.006936118489557929    7    7    7    2
 -0.005309306028334144    7    7    7    3
 -0.005072970610828216    7    7    7    4
 -0.008066047697261014    7    7    7    5
 -0.002931329957317473    7    7    7    6
 0.4403061215736383    7    7    7    7
 0.01046974528187833    8    1    1    1
 -0.001073503266405312    8    1    2    1
 0.009355884098786155    8    1    2    2
 -0.0291795530692127    8    1    3    1
 0.002076222957587885    8    1    3    2
 0.01092743590545832    8    1    3    3
 0.02812804776175351    8    1    4    1
 0.0002775123401477638    8    1    4    2
 0.0002423909451411675    8    1    4    3
 0.01151550732926484    8    1    4    4
 -0.03065623298125856    8    1    5    1
 0.001736058899214266    8    1    5    2
 0.000167952401312611    8    1    5    3
 0.0004107290344835628    8    1    5    4
 0.009666311144071483    8    1    5    5
 0.03022542158711128    8    1    6    1
 0.002021234451012479    8    1    6    2
 0.002010386275638874    8    1    6    3
 0.0008791900061853881    8    1    6    4
 0.00102189260897583    8    1    6    5
 0.00767151901681153    8    1    6    6
 -0.0317066979010017    8    1    7    1
 -0.002554834010808277    8    1    7    2
 -0.0006903528553873777    8    1    7    3
 0.0007553179412842508    8    1    7    4
 0.0006790986430576164    8    1    7    5
 0.0008464941605160745    8    1    7    6
 0.00959565298964426    8    1    7    7
 0.0692518390563677    8    1    8    1
 0.01540796534617004    8    2    1    1
 -0.001398611485247434    8    2    2    1
 0.006455419462223356    8    2    2    2
 -0.005784447644635577    8    2    3    1
 0.02890770119962289    8    2    3    2
 0.01495143201157394    8    2    3    3
 0.003604796973016509    8    2    4    1
 -0.02791644243951377    8    2    4    2
 -0.001198208910684048    8    2    4    3
 0.01299866320247994    8    2    4    4
 0.0006434874678077064    8    2    5    1
 0.03032611842436675    8    2    5    2
 -0.002712651409939724    8    2    5    3
 0.000658292914895493    8    2    5    4
 0.01231746450639574    8    2    5    5
 0.0006848479761110143    8    2    6    1
 -0.03104954059530657    8    2    6    2
 0.001743287106561462    8    2    6    3
 0.001870026915196206    8    2    6    4
 -0.001230349120473222    8    2    6    5
 0.01195272832385698    8    2    6    6
 -0.0021163931285875    8    2    7    1
 0.03130611995498117    8    2    7    2
 0.001323816787679748    8    2    7    3
 0.001923022016138716    8    2    7    4
 0.0004173549932653631    8    2    7    5
 0.0005761192604993261    8    2    7    6
 0.009926052697732614    8    2    7    7
 0.002312057931104144    8    2    8    1
 0.0682321943424625    8    2    8    2
 -0.0944728130813873    8    3    1    1
 -0.003708868810834633    8    3    2    1
 0.09374656839839905    8    3    2    2
 -0.009998312500274172    8    3    3    1
 -0.007897284637876869    8    3    3    2
 -0.0005849509577334367    8    3    3    3
 0.002347376179973547    8    3    4    1
 0.003131485823389216    8    3    4    2
 0.03826096264597961    8    3    4    3
 -0.005124051770774004    8    3    4    4
 -0.001871331784575174    8    3    5    1
 -0.003191105423213449    8    3    5    2
 0.04083796482623865    8    3    5    3
 -0.0390774812435375    8    3    5    4
 0.003177025717902412    8    3    5    5
 0.002095022568243918    8    3    6    1
 0.0006754510728243195    8    3    6    2
 -0.03641887980316082    8    3    6    3
 -0.04199298614669104    8    3    6    4
 0.02981676134198094    8    3    6    5
 0.005530441487411171    8    3    6    6
 -0.003271193752119248    8    3    7    1
 -0.003222920110199935    8    3    7    2
 -0.04047010608673731    8    3    7    3
 -0.03067396242287859    8    3    7    4
 -0.03573711141113665    8    3    7    5
 -0.03713483335150203    8    3    7    6
 -0.003377384388213405    8    3    7    7
 0.002126876583342911    8    3    8    1
 -0.002958487610183129    8    3    8    2
 0.05390588595441746    8    3    8    3
 0.09501104196032385    8    4    1    1
 0.003439890631546161    8    4    2    1
 -0.09281639444090869    8    4    2    2
 0.008374732592196924    8    4    3    1
 0.009419047050623772    8    4    3    2
 0.007638583355785852    8    4    3    3
 0.001067250179867879    8    4    4    1
 0.0009537026723009733    8    4    4    2
 -0.03817974806105379    8    4    4    3
 9.97881189259494e-05    8    4    4    4
 0.001609295019605957    8    4    5    1
 0.0004924566675816993    8    4    5    2
 -0.03797720449962488    8    4    5    3
 0.0424449371131086    8    4    5    4
 -0.002835000135505342    8    4    5    5
 0.0009435772361807958    8    4    6    1
 -0.001527868670312359    8    4    6    2
 0.02692092297092557    8    4    6    3
 0.04434813919269681    8    4    6    4
 -0.03640084749862996    8    4    6    5
 0.00898400636885514    8    4    6    6
 0.003397726798639183    8    4    7    1
 0.001809864964135507    8    4    7    2
 0.03796538185803694    8    4    7    3
 0.03987004081864661    8    4    7    4
 0.02875850397390533    8    4    7    5
 0.03680226067936875    8    4    7    6
 -0.009910703953561464    8    4    7    7
 0.001130650774807801    8    4    8    1
 0.0001202791584560221    8    4    8    2
 -0.03735705113327988    8    4    8    3
 0.05509400808253937    8    4    8    4
 -0.1010881619136473    8    5    1    1
 -0.004033151135598688    8    5    2    1
 0.1017687891866469    8    5    2    2
 -0.009798381855324449    8    5    3    1
 -0.009467893498589565    8    5    3    2
 0.006306512184786463    8    5    3    3
 0.002570802558923583    8    5    4    1
 -0.0007296726376413513    8    5    4    2
 0.03117316695031924    8    5    4    3
 0.008133819570258632    8    5    4    4
 -8.407715814544665e-05    8    5    5    1
 -0.0005547573613093415    8    5    5    2
 0.04422092379722654    8    5    5    3
 -0.04549206283390948    8    5    5    4
 -0.003493363666798478    8    5    5    5
 0.001237477123054143    8    5    6    1
 0.002397513272205028    8    5    6    2
 -0.03681815384545471    8    5    6    3
 -0.04395339108629056    8    5    6    4
 0.04258707470114088    8    5    6    5
 -0.007072868532984037    8    5    6    6
 -0.0007155396219921734    8    5    7    1
 -0.002619565910119553    8    5    7    2
 -0.03988971359095856    8    5    7    3
 -0.04064916207780658    8    5    7    4
 -0.04220746437596749    8    5    7    5
 -0.03369798422848647    8    5    7    6
 -0.002307538999389994    8    5    7    7
 -0.001719020672615979    8    5    8    1
 -0.001551761976908209    8    5    8    2
 0.04022936663730468    8    5    8    3
 -0.04041499986042711    8    5    8    4
 0.06141846485746651    8    5    8    5
 0.09832017562268497    8    6    1    1
 0.004164667074941739    8    6    2    1
 -0.1068771075510903    8    6    2    2
 0.01119859546915339    8    6    3    1
 0.008099938407227404    8    6    3    2
 -0.009818811105292556    8    6    3    3
 -0.0001008319684218486    8    6    4    1
 -0.001505846929405539    8    6    4    2
 -0.03930549622364025    8    6    4    3
 0.001819314594257442    8    6    4    4
 0.0009296582962716906    8    6    5    1
 0.002703454755142589    8    6    5    2
 -0.04140379613232584    8    6    5    3
 0.03588070228001349    8    6    5    4
 0.006182533250338566    8    6    5    5
 0.0005871525628413431    8    6    6    1
 0.001523073548032347    8    6    6    2
 0.03950720520179138    8    6    6    3
 0.04911598453533353    8    6    6    4
 -0.04278003666291073    8    6    6    5
 -0.003619528010167869    8    6    6    6
 0.003804909100120036    8    6    7    1
 0.0004456917145888806    8    6    7    2
 0.03444762738717421    8    6    7    3
 0.03960241377623545    8    6    7    4
 0.03915405815448759    8    6    7    5
 0.04390481402025649    8    6    7    6
 -0.01516218409297664    8    6    7    7
 0.001024410693023543    8    6    8    1
 -0.000720478580836319    8    6    8    2
 -0.04110698701756513    8    6    8    3
 0.04110293029083131    8    6    8    4
 -0.04421738472225513    8    6    8    5
 0.06262007639879513    8    6    8    6
 -0.1074091704240684    8    7    1    1
 -0.003809155828404577    8    7    2    1
 0.1032327545376284    8    7    2    2
 -0.009659666358459943    8    7    3    1
 -0.01052602124650692    8    7    3    2
 -0.009233813247852002    8    7    3    3
 0.002880292850808334    8    7    4    1
 0.001030532890488327    8    7    4    2
 0.03935942223313856    8    7    4    3
 0.005449523193726346    8    7    4    4
 0.001184850591566239    8    7    5    1
 -0.003221798374351128    8    7    5    2
 0.03564185790827688    8    7    5    3
 -0.04408264562886786    8    7    5    4
 -0.01196425095573019    8    7    5    5
 0.00101503606869201    8    7    6    1
 -0.0004096972214368514    8    7    6    2
 -0.03724564964273693    8    7    6    3
 -0.04002654837796485    8    7    6    4
 0.04055749072283917    8    7    6    5
 0.004624079068029896    8    7    6    6
 -0.0006899288509529195    8    7    7    1
 -0.001011638722548135    8    7    7    2
 -0.04541796438607062    8    7    7    3
 -0.04513112217318649    8    7    7    4
 -0.04294328268270169    8    7    7    5
 -0.04595054451951493    8    7    7    6
 0.002812449830978644    8    7    7    7
 -0.001570608658956294    8    7    8    1
 -0.0002130390447618704    8    7    8    2
 0.04214180783218138    8    7    8    3
 -0.04198924433607064    8    7    8    4
 0.04549825973774056    8    7    8    5
 -0.04594978843310391    8    7    8    6
 0.06490046123177977    8    7    8    7
 0.4437566106933424    8    8    1    1
 0.00172938023023242    8    8    2    1
 0.4381752031404474    8    8    2    2
 -0.008352022949953073    8    8    3    1
 0.006716828805415152    8    8    3    2
 0.4173359002839511    8    8    3    3
 0.006387376793894233    8    8    4    1
 -9.593310793505646e-05    8    8    4    2
 -0.006935930578444125    8    8    4    3
 0.4219939114835045    8    8    4    4
 0.001994842099595656    8    8    5    1
 0.007898410443500774    8    8    5    2
 0.005283493412152907    8    8    5    3
 -0.004479821896497463    8    8    5    4
 0.4229138193698976    8    8    5    5
 -0.003063368205817932    8    8    6    1
 -0.008493444422233437    8    8    6    2
 -0.005157755075279311    8    8    6    3
 0.007241433871163233    8    8    6    4
 -0.009553482982660068    8    8    6    5
 0.4187022927300597    8    8    6    6
 -0.008593918807647063    8    8    7    1
 -0.0009375413076319514    8    8    7    2
 0.008202187005790994    8    8    7    3
 -0.005672978374541953    8    8    7    4
 0.004927629821363068    8    8    7    5
 -0.004449629639798025    8    8    7    6
 0.4188475672039524    8    8    7    7
 0.01404174826463267    8    8    8    1
 0.01465757523311187    8    8    8    2
 -0.001785851837679285    8    8    8    3
 0.00229455465104814    8    8    8    4
 -0.0009713011170536798    8    8    8    5
 -0.003082766693725764    8    8    8    6
 -0.003478179893340316    8    8    8    7
 0.4544191377452401    8    8    8    8
 0.000840202139934713    9    1    1    1
 3.637167915521988e-05    9    1    2    1
 -0.0004318299604708886    9    1    2    2
 -0.002764538489402555    9    1    3    1
 0.0005704396261313631    9    1    3    2
 -0.00014176640097231    9    1    3    3
 0.01879038957894272    9    1    4    1
 0.002213248010818621    9    1    4    2
 0.001914626928527326    9    1    4    3
 -9.007421821554843e-05    9    1    4    4
 0.01273721743011146    9    1    5    1
 9.310004755136637e-05    9    1    5    2
 0.0008894421138023009    9    1    5    3
 0.000857149185892011    9    1    5    4
 0.0006263421960376419    9    1    5    5
 0.009636676510084735    9    1    6    1
 0.0001008471785017853    9    1    6    2
 0.0009789673799516202    9    1    6    3
 -0.0004633274323929188    9    1    6    4
 -0.000225249702324203    9    1    6    5
 -0.0002779461544074725    9    1    6    6
 0.01560632672768224    9    1    7    1
 -0.0004121248883077637    9    1    7    2
 0.001369434172733076    9    1    7    3
 0.0002679343905429191    9    1    7    4
 0.0005715324540540617    9    1    7    5
 0.0001029462989293609    9    1    7    6
 0.0003502836445074534    9    1    7    7
 0.0002444346007182943    9    1    8    1
 -0.0008656099445687944    9    1    8    2
 -0.0003415898108424255    9    1    8    3
 0.001190245021739773    9    1    8    4
 1.030312370750056e-05    9    1    8    5
 0.0006114673982096965    9    1    8    6
 9.238129796137577e-05    9    1    8    7
 -0.0003108823380627342    9    1    8    8
 0.01871178074669078    9    1    9    1
 0.0001070480086687184    9    2    1    1
 -0.000109630482363326    9    2    2    1
 0.001186230162833188    9    2    2    2
 -0.0002970145796020087    9    2    3    1
 0.008739663833793839    9    2    3    2
 -0.00109513098444785    9    2    3    3
 0.002129591517026489    9    2    4    1
 0.02010479307569456    9    2    4    2