 &FCI NORB=  10,NELEC=10,MS2=0,
  ORBSYM=1,1,1,1,1,1,1,1,1,1,
  ISYM=1,
 &END
 0.7088931419052515    1    1    1    1
 0.04288430014319766    2    1    1    1
 0.03116725295475244    2    1    2    1
 0.6544406781603735    2    2    1    1
 0.04357040606220287    2    2    2    1
 0.7160419619222348    2    2    2    2
 -0.02065489945348419    3    1    1    1
 -0.0002804881532734881    3    1    2    1
 -0.01771099343230401    3    1    2    2
 0.02161521420838285    3    1    3    1
 0.01246894366879219    3    2    1    1
 0.0003073775856616556    3    2    2    1
 0.01602986825260514    3    2    2    2
 -0.0009103065908913085    3    2    3    1
 0.02291637562166051    3    2    3    2
 0.613346566014574    3    3    1    1
 0.03714887160204808    3    3    2    1
 0.6132027748531257    3    3    2    2
 -0.0182870541145948    3    3    3    1
 0.01495132349405292    3    3    3    2
 0.6053387976079153    3    3    3    3
 0.02303403472115543    4    1    1    1
 0.0003388466504424893    4    1    2    1
 0.02461779437832046    4    1    2    2
 -0.0002312598357164994    4    1    3    1
 0.004919075498770983    4    1    3    2
 0.009969008284437208    4    1    3    3
 0.02435734783603135    4    1    4    1
 -0.002738947029488778    4    2    1    1
 -0.001227760347438893    4    2    2    1
 -0.006855283601393761    4    2    2    2
 0.003304641003473516    4    2    3    1
 0.001871040077414163    4    2    3    2
 -0.01186944389180094    4    2    3    3
 0.006687304782182675    4    2    4    1
 0.01984732056243864    4    2    4    2
 0.02360706180122716    4    3    1    1
 -0.003966826374179101    4    3    2    1
 0.02006046274388531    4    3    2    2
 0.004647706907907908    4    3    3    1
 0.003696566410618545    4    3    3    2
 0.02410119531573051    4    3    3    3
 0.001020243577338458    4    3    4    1
 0.002735590822867708    4    3    4    2
 0.02270237305243012    4    3    4    3
 0.6533531092322062    4    4    1    1
 0.02777717116866357    4    4    2    1
 0.6649556739773947    4    4    2    2
 -0.02088804843429075    4    4    3    1
 0.009361746043916683    4    4    3    2
 0.6026386389400101    4    4    3    3
 0.02256847005271181    4    4    4    1
 -0.00645939401341173    4    4    4    2
 0.02441672997350485    4    4    4    3
 0.6935821380443188    4    4    4    4
 -0.004118598425408325    5    1    1    1
 0.001404992352625833    5    1    2    1
 -0.001173312043771185    5    1    2    2
 -0.004156955857578417    5    1    3    1
 -0.0006892633434797056    5    1    3    2
 -0.006856190697551439    5    1    3    3
 0.002271376622124733    5    1    4    1
 -0.0008318055605374849    5    1    4    2
 -0.00610670866056979    5    1    4    3
 -0.00247352861818144    5    1    4    4
 0.01852151598051787    5    1    5    1
 -0.003831006504854981    5    2    1    1
 -0.0006193566266520773    5    2    2    1
 0.001284003307593611    5    2    2    2
 0.0007488980336197195    5    2    3    1
 0.005455883420520506    5    2    3    2
 0.008560971543807224    5    2    3    3
 -0.003347468213466649    5    2    4    1
 -0.002031180773951833    5    2    4    2
 0.003908320853083446    5    2    4    3
 -0.002517684109860651    5    2    4    4
 -0.002758642785309171    5    2    5    1
 0.02104060079668408    5    2    5    2
 0.02764700281717575    5    3    1    1
 0.001424491272849715    5    3    2    1
 0.008187934652660281    5    3    2    2
 0.000333272931137327    5    3    3    1
 -0.003131991152653899    5    3    3    2
 0.01649350992952533    5    3    3    3
 -0.0009006567452430277    5    3    4    1
 0.001233938795525376    5    3    4    2
 0.002810494436247656    5    3    4    3
 0.01596887948332361    5    3    4    4
 -0.002233420204200359    5    3    5    1
 -0.002681432803830707    5    3    5    2
 0.02132222233502618    5    3    5    3
 0.01422094718453411    5    4    1    1
 0.005451703405918697    5    4    2    1
 0.02367605305870261    5    4    2    2
 0.007497531258727153    5    4    3    1
 -0.004799841414533546    5    4    3    2
 0.0133647220154168    5    4    3    3
 0.000143430419757855    5    4    4    1
 0.001415009692524158    5    4    4    2
 0.00217713179272183    5    4    4    3
 0.01843319915794061    5    4    4    4
 -0.002958862994010248    5    4    5    1
 -0.002253594632924964    5    4    5    2
 0.001156225630089229    5    4    5    3
 0.02660104998207103    5    4    5    4
 0.6266931319768718    5    5    1    1
 0.04299511848900515    5    5    2    1
 0.6245609376124062    5    5    2    2
 -0.01520290639966468    5    5    3    1
 0.02019860311939855    5    5    3    2
 0.5752889709383262    5    5    3    3
 0.0250195790682388    5    5    4    1
 -0.0007131967623085192    5    5    4    2
 0.02229075140325064    5    5    4    3
 0.6055667742316847    5    5    4    4
 -0.004312002918148965    5    5    5    1
 0.002098416724764604    5    5    5    2
 0.01699436706198374    5    5    5    3
 0.01599318986038315    5    5    5    4
 0.6215061784278947    5    5    5    5
 -0.002826894876754732    6    1    1    1
 -0.0003638708345227966    6    1    2    1
 -0.002366171574716721    6    1    2    2
 0.0003342908886214319    6    1    3    1
 2.051922293587613e-05    6    1    3    2
 -0.002514152400757233    6    1    3    3
 0.0002405063413045181    6    1    4    1
 7.580714799373084e-05    6    1    4    2
 -6.629526651337485e-05    6    1    4    3
 -0.002442638448402063    6    1    4    4
 0.0003414320166777535    6    1    5    1
 -7.731285316910621e-05    6    1    5    2
 -0.000186083215732087    6    1    5    3
 -6.399408867741023e-05    6    1    5    4
 -0.002395466887802241    6    1    5    5
 0.0002973695978169873    6    1    6    1
 -0.004648521258120028    6    2    1    1
 -0.0004587532428031394    6    2    2    1
 -0.005377536927924435    6    2    2    2
 0.0002490848471968869    6    2    3    1
 0.000135604185197475    6    2    3    2
 -0.004332688504404907    6    2    3    3
 -0.0002066734198907845    6    2    4    1
 0.0003957128844781932    6    2    4    2
 -0.0001469363689865487    6    2    4    3
 -0.004901907975951491    6    2    4    4
 -9.758460327903166e-05    6    2    5    1
 0.0003206582588669576    6    2    5    2
 -5.67261645626393e-07    6    2    5    3
 -0.0002836988278218109    6    2    5    4
 -0.004270241269824849    6    2    5    5
 -2.297491671870912e-05    6    2    6    1
 0.0004505749496725528    6    2    6    2
 0.006615529235124261    6    3    1    1
 0.0005887145573671374    6    3    2    1
 0.006329470231234917    6    3    2    2
 -0.0003890562792893017    6    3    3    1
 0.0001904832062003541    6    3    3    2
 0.006433811836107624    6    3    3    3
 8.151073732749393e-05    6    3    4    1
 -0.0002938276475977348    6    3    4    2
 0.0006627488886807294    6    3    4    3
 0.006401822400027896    6    3    4    4
 -0.0001187072699661787    6    3    5    1
 0.0001451340250958292    6    3    5    2
 0.0006067083759844118    6    3    5    3
 0.0001013260084725797    6    3    5    4
 0.00599141216340865    6    3    5    5
 2.078594185821877e-05    6    3    6    1
 -0.0003707353232595601    6    3    6    2
 0.0007306568457954731    6    3    6    3
 0.006573906718196553    6    4    1    1
 0.0003188888312770032    6    4    2    1
 0.006427905255601964    6    4    2    2
 -0.0003038450000969386    6    4    3    1
 5.340685991291279e-05    6    4    3    2
 0.005823061841091401    6    4    3    3
 0.000142818987491337    6    4    4    1
 -0.0001895010870812178    6    4    4    2
 0.0005599642145546152    6    4    4    3
 0.00703766147177936    6    4    4    4
 -0.0001792356697236054    6    4    5    1
 -3.9280608547724e-05    6    4    5    2
 0.0003681307857869737    6    4    5    3
 0.0005437123013895669    6    4    5    4
 0.005698870190470529    6    4    5    5
 -0.0002356426680725899    6    4    6    1
 -0.0001643239033591793    6    4    6    2
 0.0002485587304983939    6    4    6    3
 0.0007379068056382518    6    4    6    4
 0.008653932215296449    6    5    1    1
 0.0008406257011091936    6    5    2    1
 0.008352146478334271    6    5    2    2
 -0.000479561257363188    6    5    3    1
 0.0004460118482121252    6    5    3    2
 0.007444289370333351    6    5    3    3
 0.000443147455285997    6    5    4    1
 -6.289964106683721e-05    6    5    4    2
 0.0004489419216555888    6    5    4    3
 0.008299624434066019    6    5    4    4
 -6.467350202721197e-05    6    5    5    1
 -0.0001252607910405362    6    5    5    2
 0.0006025336403972532    6    5    5    3
 0.0002508467648424827    6    5    5    4
 0.008314119487381715    6    5    5    5
 -0.0001588339899965012    6    5    6    1
 -0.0002454911148901261    6    5    6    2
 0.0004245596799079041    6    5    6    3
 0.000490045418980533    6    5    6    4
 0.0007072118059805618    6    5    6    5
 0.1820198058749595    6    6    1    1
 0.000417641095447273    6    6    2    1
 0.1830959366721262    6    6    2    2
 0.001480602967507406    6    6    3    1
 -0.002838380373103602    6    6    3    2
 0.1787940344052453    6    6    3    3
 -0.0002403812348504905    6    6    4    1
 -0.001121203472856522    6    6    4    2
 0.001249725976421274    6    6    4    3
 0.1826513875596012    6    6    4    4
 -0.00271232291250083    6    6    5    1
 1.741739493659095e-05    6    6    5    2
 0.004023320759988579    6    6    5    3
 0.007271290792451792    6    6    5    4
 0.1747271321080256    6    6    5    5
 -0.003801392810961526    6    6    6    1
 -0.006289305962238057    6    6    6    2
 0.00860875907169352    6    6    6    3
 0.009730877430968768    6    6    6    4
 0.008427149948780455    6    6    6    5
 0.6225768150838955    6    6    6    6
 0.006839419986315559    7    1    1    1
 -0.0001924314117007875    7    1    2    1
 0.005733847437789937    7    1    2    2
 -9.586315711263021e-05    7    1    3    1
 0.0005018312068700471    7    1    3    2
 0.005293228215248656    7    1    3    3
 0.0005378097923732424    7    1    4    1
 7.669906068467557e-05    7    1    4    2
 0.0009091032305660543    7    1    4    3
 0.006424200438961343    7    1    4    4
 -0.0005901180502247285    7    1    5    1
 -5.538530108672196e-07    7    1    5    2
 0.0005107984592516485    7    1    5    3
 -1.55600988829737e-05    7    1    5    4
 0.005768709873374887    7    1    5    5
 -0.0001583605546848343    7    1    6    1
 -0.0001490902996837734    7    1    6    2
 0.0003429872699928313    7    1    6    3
 0.0002888283455265799    7    1    6    4
 0.0004047633640022689    7    1    6    5
 0.005638834811014489    7    1    6    6
 0.0006860160236491312    7    1    7    1
 -0.01140687748541436    7    2    1    1
 -0.0005226482091484134    7    2    2    1
 -0.01183882162590348    7    2    2    2
 0.0009719128613865178    7    2    3    1
 -0.0002447297877900991    7    2    3    2
 -0.009844555291525657    7    2    3    3
 -0.0004172201538248693    7    2    4    1
 0.0002635154581050364    7    2    4    2
 -0.0004429983228106717    7    2    4    3
 -0.01189571100459182    7    2    4    4
 -0.0001486539739335495    7    2    5    1
 -2.887806620951505e-05    7    2    5    2
 -0.0005199798651793384    7    2    5    3
 -0.0001162365440031485    7    2    5    4
 -0.01008968168239435    7    2    5    5
 0.0002140352328351412    7    2    6    1
 0.0001738250093607176    7    2    6    2
 -0.0003568062916824073    7    2    6    3
 -0.0007098955354261685    7    2    6    4
 -0.0005470161362333306    7    2    6    5
 -0.0108312537685428    7    2    6    6
 -0.0005793508752119002    7    2    7    1
 0.001660440371097847    7    2    7    2
 0.006967224810241064    7    3    1    1
 0.0006344470425463686    7    3    2    1
 0.006231068368944807    7    3    2    2
 -0.0005257229714446459    7    3    3    1
 -0.0002499890201253714    7    3    3    2
 0.006078451634637909    7    3    3    3
 6.189274453051944e-05    7    3    4    1
 -8.626382375356647e-05    7    3    4    2
 0.0002237996517511301    7    3    4    3
 0.007010595932260067    7    3    4    4
 4.378267388754774e-05    7    3    5    1
 -0.0002930520452149045    7    3    5    2
 0.0003433418554018825    7    3    5    3
 6.039772903658459e-05    7    3    5    4
 0.005905966342017413    7    3    5    5
 -0.0001331506011346409    7    3    6    1
 -1.520826650519356e-05    7    3    6    2
 0.0001843320652449514    7    3    6    3
 0.0004956997629324872    7    3    6    4
 0.0003043087420969381    7    3    6    5
 0.004861090848234642    7    3    6    6
 0.0004170016029109899    7    3    7    1
 -0.001126835154603346    7    3    7    2
 0.001234379462723564    7    3    7    3
 0.004027094481534896    7    4    1    1
 -1.247380543313747e-07    7    4    2    1
 0.003715673017797319    7    4    2    2
 -0.0003149031676277701    7    4    3    1
 0.0003699514639884224    7    4    3    2
 0.003394223951252771    7    4    3    3
 0.000480566476113125    7    4    4    1
 -0.0002687314241117313    7    4    4    2
 0.0005609505064160638    7    4    4    3
 0.004192932246217679    7    4    4    4
 -0.0001031102912494882    7    4    5    1
 0.0001445555827895591    7    4    5    2
 0.0001086666398762925    7    4    5    3
 -0.0004811407261723047    7    4    5    4
 0.003628918311769674    7    4    5    5
 -7.233803147610257e-05    7    4    6    1
 -0.0001127171033231191    7    4    6    2
 0.0001668892267163127    7    4    6    3
 0.0001598955452661625    7    4    6    4
 0.0001694482935166108    7    4    6    5
 0.004321557579016011    7    4    6    6
 0.0001113179822723132    7    4    7    1
 -0.0003941159475791733    7    4    7    2
 0.000237375275697821    7    4    7    3
 0.0004360469781003819    7    4    7    4
 -0.0103853081953345    7    5    1    1
 -0.001011716784788885    7    5    2    1
 -0.01078492121740388    7    5    2    2
 0.0005051103076629871    7    5    3    1
 -0.001002017410507583    7    5    3    2
 -0.009715712130362281    7    5    3    3
 -0.0006513015006874834    7    5    4    1
 0.0002187052988824622    7    5    4    2
 -0.0008326907199263064    7    5    4    3
 -0.01011455613539108    7    5    4    4
 0.0003402670541063464    7    5    5    1
 -0.0007575888676033873    7    5    5    2
 6.52380690507114e-05    7    5    5    3
 3.921873470653709e-05    7    5    5    4
 -0.01071280389928913    7    5    5    5
 8.779232658360585e-05    7    5    6    1
 0.0002553067470460411    7    5    6    2
 -0.0004278331769853543    7    5    6    3
 -0.0002644438220634907    7    5    6    4
 -0.0004911847065868707    7    5    6    5
 -0.00730544041277185    7    5    6    6
 -0.0004388726130876871    7    5    7    1
 0.000465581421437174    7    5    7    2
 -0.0001947063415640451    7    5    7    3
 -6.03358001513024e-05    7    5    7    4
 0.0008088571335985517    7    5    7    5
 -0.006039309103045946    7    6    1    1
 8.103672499992807e-05    7    6    2    1
 -0.005321685072548508    7    6    2    2
 0.0001966032982389544    7    6    3    1
 0.000237956990056532    7    6    3    2
 -0.004942061642901758    7    6    3    3
 3.466529855481817e-05    7    6    4    1
 -0.0001695185046735283    7    6    4    2
 0.000165865458542791    7    6    4    3
 -0.005959547414933552    7    6    4    4
 2.759181680072091e-05    7    6    5    1
 0.0003109618346006607    7    6    5    2
 -0.000437986188935309    7    6    5    3
 -0.0002120132595242949    7    6    5    4
 -0.005174153562057098    7    6    5    5
 0.0006249907206848437    7    6    6    1
 -0.0003863648783289514    7    6    6    2
 0.0002319692548082709    7    6    6    3
 -0.0004179996343553495    7    6    6    4
 -0.0006598375824744574    7    6    6    5
 -0.02058441412122937    7    6    6    6
 -0.0001877240403584219    7    6    7    1
 0.0005127957369939319    7    6    7    2
 -0.0001417029041403206    7    6    7    3
 8.816757394168914e-05    7    6    7    4
 0.0007475603504020678    7    6    7    5
 0.02479855487546291    7    6    7    6
 0.1897123277800012    7    7    1    1
 0.0004489881565333999    7    7    2    1
 0.191195384191005    7    7    2    2
 0.001547521778811547    7    7    3    1
 -0.002964607686257396    7    7    3    2
 0.1863778204660561    7    7    3    3
 -0.0002582513276747742    7    7    4    1
 -0.001333130239050696    7    7    4    2
 0.001510502465250461    7    7    4    3
 0.1903441875284885    7    7    4    4
 -0.003041378063671334    7    7    5    1
 0.0002743827680440121    7    7    5    2
 0.00411764359882465    7    7    5    3
 0.007626641012396362    7    7    5    4
 0.1818714396455363    7    7    5    5
 -0.003667728088886127    7    7    6    1
 -0.00600311180038666    7    7    6    2
 0.008119630764449401    7    7    6    3
 0.009260501754985023    7    7    6    4
 0.008157456911843467    7    7    6    5
 0.6001905196256726    7    7    6    6
 0.006509986616186156    7    7    7    1
 -0.0123867373505833    7    7    7    2
 0.005695016355892436    7    7    7    3
 0.004679127518455798    7    7    7    4
 -0.008444163624501401    7    7    7    5
 -0.02207381815690092    7    7    7    6
 0.6646318859512578    7    7    7    7
 0.003044190325499409    8    1    1    1
 8.03349186744734e-05    8    1    2    1
 0.002349843306247726    8    1    2    2
 0.0002177526471387545    8    1    3    1
 0.0001694635261410557    8    1    3    2
 0.002156326766021851    8    1    3    3
 -0.0001360785508542549    8    1    4    1
 1.936699641215963e-05    8    1    4    2
 0.0004750096831383511    8    1    4    3
 0.002805754902828664    8    1    4    4
 -0.0002366564833758756    8    1    5    1
 -8.12695321441687e-06    8    1    5    2
 0.000455504545604692    8    1    5    3
 1.450851573835248e-05    8    1    5    4
 0.002525859687314222    8    1    5    5
 -0.0001153631040589684    8    1    6    1
 -4.793807689747614e-05    8    1    6    2
 0.0001905388349033995    8    1    6    3
 0.0002205178159498849    8    1    6    4
 0.0002429099675693731    8    1    6    5
 0.003499869098489937    8    1    6    6
 0.0003291907976130234    8    1    7    1
 -0.000452951691795032    8    1    7    2
 0.0004259400897603523    8    1    7    3
 7.743841371092796e-05    8    1    7    4
 -0.0002002049217381664    8    1    7    5
 -0.0002988963967481819    8    1    7    6
 0.003369900034313777    8    1    7    7
 0.0005089478720290295    8    1    8    1
 -0.0003571456634546857    8    2    1    1
 0.0002093870821271793    8    2    2    1
 -0.0002403916614872499    8    2    2    2
 0.0001174619531278569    8    2    3    1
 0.000365035332818078    8    2    3    2
 3.741485117639358e-05    8    2    3    3
 -7.991020584121864e-05    8    2    4    1
 -0.0002682438456867907    8    2    4    2
 -0.0001158141971674838    8    2    4    3
 -0.0006415927286624582    8    2    4    4
 2.200066562620212e-05    8    2    5    1
 4.95639374606084e-05    8    2    5    2
 -6.367769657520872e-05    8    2    5    3
 -0.0001445199307454136    8    2    5    4
 -0.0001000895408278597    8    2    5    5
 3.499249606880698e-05    8    2    6    1
 3.467071780239922e-06    8    2    6    2
 8.82451845987645e-06    8    2    6    3
 -6.81657830873844e-05    8    2    6    4
 -2.643372354323605e-05    8    2    6    5
 -0.0006890611416357616    8    2    6    6
 -0.0001234514079794279    8    2    7    1
 0.000297966257553752    8    2    7    2
 -0.0002442803813477566    8    2    7    3
 -5.194570547806565e-05    8    2    7    4
 1.13667539526325e-05    8    2    7    5
 0.0002502156168294327    8    2    7    6
 -0.0006017979569156646    8    2    7    7
 -0.0001590762390109759    8    2    8    1
 0.0003392308355345961    8    2    8    2
 0.009865204948723075    8    3    1    1
 0.001154639910868533    8    3    2    1
 0.009054661173000658    8    3    2    2
 -0.001125699954345195    8    3    3    1
 0.0005429909654773823    8    3    3    2
 0.009173285091518836    8    3    3    3
 0.0003018792327296468    8    3    4    1
 -0.0003649203396367446    8    3    4    2
 0.0002743868347355768    8    3    4    3
 0.009537563843540623    8    3    4    4
 0.0001327450919501061    8    3    5    1
 -2.211378894314262e-05    8    3    5    2
 0.0003782432272802777    8    3    5    3
 -0.0002464733308924694    8    3    5    4
 0.008917877190818702    8    3    5    5
 -0.0001668703998748778    8    3    6    1
 -0.000176219220699273    8    3    6    2
 0.0004852331695762678    8    3    6    3
 0.0006294338658030712    8    3    6    4
 0.0005985739320175791    8    3    6    5
 0.008016209910203057    8    3    6    6
 0.0006643185662095141    8    3    7    1
 -0.001325479267485338    8    3    7    2
 0.001200321374864217    8    3    7    3
 0.0003666277506695768    8    3    7    4
 -0.0004992532217275342    8    3    7    5
 -0.000485674467384061    8    3    7    6
 0.008091328654207922    8    3    7    7
 0.0006152866918416233    8    3    8    1
 -0.0003245948931994163    8    3    8    2
 0.001917478338364863    8    3    8    3
 -0.005237234770003367    8    4    1    1
 -0.0007646061343202104    8    4    2    1
 -0.006619119192846774    8    4    2    2
 0.0004597283952598796    8    4    3    1
 -0.0002773110981665589    8    4    3    2
 -0.005498966189211247    8    4    3    3
 -0.00014525032483455    8    4    4    1
 0.0005136013292751985    8    4    4    2
 6.032605460443258e-05    8    4    4    3
 -0.006292312232878692    8    4    4    4
 -0.0002267184638870728    8    4    5    1
 -0.0001036636413302589    8    4    5    2
 0.0002021663522325451    8    4    5    3
 -0.0003223283019773904    8    4    5    4
 -0.005319317002325587    8    4    5    5
 3.2059311253106e-05    8    4    6    1
 0.0003284444128047364    8    4    6    2
 -0.0003662890028767252    8    4    6    3
 -0.0001150456342043749    8    4    6    4
 -0.0003494433536684047    8    4    6    5
 -0.006551969510604998    8    4    6    6
 -0.0003449757586558774    8    4    7    1
 1.629694633554306e-05    8    4    7    2
 0.0003153416235471373    8    4    7    3
 3.854375271934465e-05    8    4    7    4
 0.000527586086464633    8    4    7    5
 -0.000153521114479482    8    4    7    6
 -0.006629700511003239    8    4    7    7
 -0.000101501827042054    8    4    8    1
 1.309193310985997e-05    8    4    8    2
 -0.0001470264295373447    8    4    8    3
 0.001306072115385337    8    4    8    4
 -0.00356324857842671    8    5    1    1
 -0.0004265694495476749    8    5    2    1
 -0.004201020508291628    8    5    2    2
 3.306212021367524e-05    8    5    3    1
 -0.000350603498787543    8    5    3    2
 -0.003811200260153912    8    5    3    3
 -0.0003528006400652629    8    5    4    1
 8.128852926899117e-05    8    5    4    2
 -0.0004929073117410866    8    5    4    3
 -0.003553225706644055    8    5    4    4
 0.0003297604963639175    8    5    5    1
 -0.0003485193253249818    8    5    5    2
 0.0004691647367278216    8    5    5    3
 -0.000458742786782511    8    5    5    4
 -0.003984463686358733    8    5    5    5
 1.347789611337728e-05    8    5    6    1
 0.0001717016686998334    8    5    6    2
 -0.0001389085203672539    8    5    6    3
 -0.0001106601985846948    8    5    6    4
 -0.0001491434279217003    8    5    6    5
 -0.002934820962899152    8    5    6    6
 -0.0001564578475376435    8    5    7    1
 8.61793048926806e-05    8    5    7    2
 5.558746678890932e-06    8    5    7    3
 5.613101550646874e-05    8    5    7    4
 0.0003573335545859723    8    5    7    5
 9.37688052987491e-05    8    5    7    6
 -0.003203552827443608    8    5    7    7
 -3.558519913175806e-05    8    5    8    1
 -2.917716916431556e-05    8    5    8    2
 -0.0001151567652505426    8    5    8    3
 0.0004038157940379899    8    5    8    4
 0.0004768239644236115    8    5    8    5
 -0.001072343137922228    8    6    1    1
 9.990972081016697e-05    8    6    2    1
 -0.00020578411195488    8    6    2    2
 0.0001574415620755077    8    6    3    1
 0.0001442549311726976    8    6    3    2
 -0.0001420966222639778    8    6    3    3
 0.0001058001922210111    8    6    4    1
 -0.0002161889828848359    8    6    4    2
 0.0001553014023951586    8    6    4    3
 -0.000857810625561351    8    6    4    4
 -1.117354934466932e-05    8    6    5    1
 0.0002647862796350411    8    6    5    2
 -0.0003746992002219991    8    6    5    3
 4.398759759349735e-05    8    6    5    4
 -0.0005930252656119846    8    6    5    5
 0.0003301710162466637    8    6    6    1
 -0.0001677478030842836    8    6    6    2
 0.0005045237897751601    8    6    6    3
 -0.0005788605768228945    8    6    6    4
 -0.0001938220777688678    8    6    6    5
 -0.005855443194291409    8    6    6    6
 -0.0001842390256495045    8    6    7    1
 0.0003902266999583453    8    6    7    2
 -0.0004596915684499248    8    6    7    3
 -0.0001026408830058643    8    6    7    4
 -0.0001157584323761646    8    6    7    5
 0.002193758543363189    8    6    7    6
 -0.002496044685004516    8    6    7    7
 -0.0002720884195795291    8    6    8    1
 -0.0002011058454081116    8    6    8    2
 -0.0001211962599712815    8    6    8    3
 7.251694787266703e-05    8    6    8    4
 0.0004141226943353616    8    6    8    5
 0.02108701399196016    8    6    8    6
 0.003613323694725775    8    7    1    1
 3.062690531417161e-05    8    7    2    1
 0.003980726220445424    8    7    2    2
 0.0005321479515915015    8    7    3    1
 -0.0003042288516335083    8    7    3    2
 0.003961411862062035    8    7    3    3
 -6.677354440113342e-05    8    7    4    1
 8.976051567028501e-06    8    7    4    2
 0.0001423011049356843    8    7    4    3
 0.00349675001745195    8    7    4    4
 -0.0002414212558124587    8    7    5    1
 8.779837710221964e-05    8    7    5    2
 -0.0001056988854329777    8    7    5    3
 0.0005621048313838236    8    7    5    4
 0.003625954870395774    8    7    5    5
 0.0003713240418393943    8    7    6    1
 0.0002075303359938685    8    7    6    2
 -0.0005426454393481173    8    7    6    3
 -0.0008612520444915891    8    7    6    4
 -0.0004386253662583759    8    7    6    5
 -0.01534012157625788    8    7    6    6
 -0.0001472072106031567    8    7    7    1
 0.0007108426957754332    8    7    7    2
 9.994462619227466e-06    8    7    7    3
 -0.0007041297334992651    8    7    7    4
 0.0001382140760273062    8    7    7    5
 -0.001716891404728586    8    7    7    6
 -0.01169623959807303    8    7    7    7
 6.102144539038935e-06    8    7    8    1
 -0.0003207579313687887    8    7    8    2
 -0.000745540630609495    8    7    8    3
 0.0004904807301946596    8    7    8    4
 -0.0002154951664057138    8    7    8    5
 -0.003153655438829505    8    7    8    6
 0.02324544709807075    8    7    8    7
 0.1875971371815042    8    8    1    1
 0.0004588411592303133    8    8    2    1
 0.1881386874597353    8    8    2    2
 0.001573180690712913    8    8    3    1
 -0.002935682293792489    8    8    3    2
 0.1840558522014396    8    8    3    3
 -0.0003295115124219864    8    8    4    1
 -0.0009755297509907841    8    8    4    2
 0.001230353166756536    8    8    4    3
 0.1880529950731424    8    8    4    4
 -0.002829355335753012    8    8    5    1
 7.239845482689705e-05    8    8    5    2
 0.004319490045208082    8    8    5    3
 0.007370682873883857    8    8    5    4
 0.1796704649548231    8    8    5    5
 -0.003415876864918402    8    8    6    1
 -0.005808436165025664    8    8    6    2
 0.007547560335860153    8    8    6    3
 0.008701747045952246    8    8    6    4
 0.007400230666858712    8    8    6    5
 0.5711952131761145    8    8    6    6
 0.005203765161443858    8    8    7    1
 -0.01056774341041411    8    8    7    2
 0.004843813966080072    8    8    7    3
 0.004305121709859658    8    8    7    4
 -0.006955593955191676    8    8    7    5
 -0.01374363997216148    8    8    7    6
 0.5906068967222666    8    8    7    7
 0.003912219195923508    8    8    8    1
 -0.0008773065240342509    8    8    8    2
 0.008501473674466759    8    8    8    3
 -0.006724542449326753    8    8    8    4
 -0.003386630952125067    8    8    8    5
 -0.007507948264018422    8    8    8    6
 -0.01087542078476829    8    8    8    7
 0.6015407829274066    8    8    8    8
 -0.01224735262381557    9    1    1    1
 -0.001312121791031149    9    1    2    1
 -0.01216022018014018    9    1    2    2
 0.000705778658577075    9    1    3    1
 -0.0006262627183330878    9    1    3    2
 -0.01136449071515332    9    1    3    3
 -0.0003878105140447021    9    1    4    1
 0.0005958429828771642    9    1    4    2
 -0.0008250581247184428    9    1    4    3
 -0.0114361875908588    9    1    4    4
 -0.0001819723878352771    9    1    5    1
 -0.0003844073610657347    9    1    5    2
 -0.0001848419656807264    9    1    5    3
 -0.0002246048548196909    9    1    5    4
 -0.01125495215237505    9    1    5    5
 -4.714905848539678e-06    9    1    6    1
 0.0004932471928559092    9    1    6    2
 -0.000687991853402075    9    1    6    3
 -0.0002144686388067465    9    1    6    4
 -0.0005387681662548658    9    1    6    5
 -0.01046917223941791    9    1    6    6
 -0.0005869291108867966    9    1    7    1
 0.0002499528257553352    9    1    7    2
 0.0001856021832494319    9    1    7    3
 -0.0001055702777032117    9    1    7    4
 0.0007267203332639908    9    1    7    5
 -1.74347081018889e-05    9    1    7    6
 -0.01130357682374804    9    1    7    7
 -0.0001195036673978988    9    1    8    1
 3.994131007646813e-06    9    1    8    2
 -0.000390773550410726    9    1    8    3
 0.001120933687912241    9    1    8    4
 0.0004177091883053664    9    1    8    5
 4.159366957986317e-05    9    1    8    6