 &FCI NORB=  10,NELEC=10,MS2=0,
  ORBSYM=1,1,1,1,1,1,1,1,1,1,
  ISYM=1,
 &END
 0.734707871595493    1    1    1    1
 0.03589248129454593    1    1    2    1
 0.6755070782481429    1    1    2    2
 -0.005418016836316869    1    1    3    1
 0.0179209415534394    1    1    3    2
 0.6052427189696994    1    1    3    3
 0.008405983382186202    1    1    4    1
 -0.009476696338582028    1    1    4    2
 0.02001865800803204    1    1    4    3
 0.6247307053408957    1    1    4    4
 0.0007551226903131925    1    1    5    1
 -0.0009497489065130667    1    1    5    2
 0.02212423654193141    1    1    5    3
 0.00737218898232439    1    1    5    4
 0.6746270302437428    1    1    5    5
 -0.0002082219282098762    1    1    6    1
 0.001325159469800828    1    1    6    2
 -0.007316267398686897    1    1    6    3
 -0.006968645127921298    1    1    6    4
 0.01309349949760689    1    1    6    5
 0.1947673810841432    1    1    6    6
 -0.004987041624396104    1    1    7    1
 0.003022202928692981    1    1    7    2
 -0.004755813898859126    1    1    7    3
 0.01347446326720702    1    1    7    4
 0.003325719582212672    1    1    7    5
 -0.002347117436051106    1    1    7    6
 0.186489474995283    1    1    7    7
 -0.0008749904534982736    1    1    8    1
 -0.00587256447524163    1    1    8    2
 0.01415707361970608    1    1    8    3
 0.003765322465081931    1    1    8    4
 0.007156234817130232    1    1    8    5
 -0.005587421236303184    1    1    8    6
 -0.003595525306763439    1    1    8    7
 0.1789575587915247    1    1    8    8
 -0.0115010345502469    1    1    9    1
 0.005971339852064022    1    1    9    2
 7.027385056640054e-05    1    1    9    3
 0.006535754666361726    1    1    9    4
 0.0002896647996856868    1    1    9    5
 -0.0008124143901539504    1    1    9    6
 0.002106816219664626    1    1    9    7
 -0.0002907400669703638    1    1    9    8
 0.1908086038653318    1    1    9    9
 0.006076051386156588    1    1   10    1
 -0.01079608985593288    1    1   10    2
 0.003849045967947165    1    1   10    3
 0.0005149048275039162    1    1   10    4
 0.000606348434394412    1    1   10    5
 -0.0002745780922210057    1    1   10    6
 -0.002271508954749093    1    1   10    7
 0.0006430956621085527    1    1   10    8
 0.0005727802142564469    1    1   10    9
 0.1880395416677475    1    1   10   10
 0.03589248129454593    2    1    1    1
 0.02972834667489804    2    1    2    1
 0.03588270854945897    2    1    2    2
 -0.0009874600300370402    2    1    3    1
 0.0001512300181159909    2    1    3    2
 0.02334615983512139    2    1    3    3
 -0.001540333191490655    2    1    4    1
 -0.001924489893848017    2    1    4    2
 -0.004399314839512356    2    1    4    3
 0.02447805898470915    2    1    4    4
 -0.001144970638474064    2    1    5    1
 -0.002572372485913049    2    1    5    2
 -0.004889382070127293    2    1    5    3
 -0.004864921932164709    2    1    5    4
 0.03838715299803101    2    1    5    5
 0.0002170986453336914    2    1    6    1
 0.0002065520108974916    2    1    6    2
 -0.0004744599652563036    2    1    6    3
 -0.0004788517320050235    2    1    6    4
 0.0009575365758360027    2    1    6    5
 0.0009042203985960257    2    1    6    6
 -1.788687500531782e-05    2    1    7    1
 -0.0001991997104257438    2    1    7    2
 -0.0005281984755374171    2    1    7    3
 0.0008508555085318764    2    1    7    4
 0.0001642727000570139    2    1    7    5
 -1.066885364812793e-05    2    1    7    6
 0.0008802137670608466    2    1    7    7
 -0.0005293344313092732    2    1    8    1
 -0.0004454108815992128    2    1    8    2
 0.0007049335995821416    2    1    8    3
 3.747287351722523e-06    2    1    8    4
 0.0002953857637045597    2    1    8    5
 -3.202110988679253e-05    2    1    8    6
 -9.147239264598778e-05    2    1    8    7
 0.0006295234561713275    2    1    8    8
 -0.0003876467124683312    2    1    9    1
 -0.0003116228383321458    2    1    9    2
 -7.23406960546185e-05    2    1    9    3
 0.0004562146901750413    2    1    9    4
 -7.181659213543223e-05    2    1    9    5
 8.075706090430509e-06    2    1    9    6
 5.982121793735249e-05    2    1    9    7
 -1.129843474587814e-05    2    1    9    8
 0.0006208119498574232    2    1    9    9
 -0.0002964584903035611    2    1   10    1
 -0.0004132401494164678    2    1   10    2
 0.0002891498258609584    2    1   10    3
 -1.911599762075085e-05    2    1   10    4
 -2.558099312918073e-05    2    1   10    5
 2.507808803802704e-05    2    1   10    6
 -4.313882031210181e-05    2    1   10    7
 1.508702372217508e-05    2    1   10    8
 -3.84467052709034e-06    2    1   10    9
 0.0005691614651319895    2    1   10   10
 0.6755070782481425    2    2    1    1
 0.03588270854945896    2    2    2    1
 0.7318192442010151    2    2    2    2
 -0.003816625686525241    2    2    3    1
 0.01506674224359957    2    2    3    2
 0.6199003569671493    2    2    3    3
 0.01171879454202271    2    2    4    1
 -0.01364509449877085    2    2    4    2
 0.01894753193632848    2    2    4    3
 0.6067012195746643    2    2    4    4
 0.006074986758607312    2    2    5    1
 -0.003399215589707477    2    2    5    2
 0.01148623434709483    2    2    5    3
 0.01888000242889016    2    2    5    4
 0.6746259434835485    2    2    5    5
 0.0005375875387364781    2    2    6    1
 0.0005217005546863671    2    2    6    2
 -0.006485561406815181    2    2    6    3
 -0.00763042149726325    2    2    6    4
 0.01296788638984262    2    2    6    5
 0.1953855036151681    2    2    6    6
 -0.004272927651956699    2    2    7    1
 0.003671358044017485    2    2    7    2
 -0.004611633612741056    2    2    7    3
 0.01408391936071339    2    2    7    4
 0.005160837596186334    2    2    7    5
 -0.002670559111945738    2    2    7    6
 0.1855176270109551    2    2    7    7
 -0.001258477538637839    2    2    8    1
 -0.006064768781617855    2    2    8    2
 0.01317593123528164    2    2    8    3
 0.004286093615170699    2    2    8    4
 0.006300236735991256    2    2    8    5
 -0.005517387466590115    2    2    8    6
 -0.00468826836718131    2    2    8    7
 0.1808663102079607    2    2    8    8
 -0.01093173702057408    2    2    9    1
 0.006747652633855292    2    2    9    2
 0.0003625380063117063    2    2    9    3
 0.006318502456603532    2    2    9    4
 0.001053065724932609    2    2    9    5
 -0.000845700718539144    2    2    9    6
 0.00224077209040864    2    2    9    7
 -0.001123719143210353    2    2    9    8
 0.1894835953762201    2    2    9    9
 0.00531655649034705    2    2   10    1
 -0.01118748746203739    2    2   10    2
 0.004153051512394537    2    2   10    3
 0.0002927279569007468    2    2   10    4
 0.0001260689285928584    2    2   10    5
 -0.0004728684536343614    2    2   10    6
 -0.001975890412700287    2    2   10    7
 0.0009712076580774152    2    2   10    8
 0.0006684904018337498    2    2   10    9
 0.1905673380954847    2    2   10   10
 -0.005418016836316874    3    1    1    1
 -0.0009874600300370407    3    1    2    1
 -0.003816625686525247    3    1    2    2
 0.02432264788009159    3    1    3    1
 0.002763002996571136    3    1    3    2
 -0.00362083876185072    3    1    3    3
 -0.001240036115376807    3    1    4    1
 0.005163018478918604    3    1    4    2
 -0.0002165399857097938    3    1    4    3
 -0.01178913012495262    3    1    4    4
 -0.0002892061501790994    3    1    5    1
 0.007287972160413967    3    1    5    2
 0.002223661961279705    3    1    5    3
 -0.0006528023836888963    3    1    5    4
 0.003211343951481986    3    1    5    5
 -0.0004162274807294506    3    1    6    1
 -0.0001726353407534486    3    1    6    2
 0.0004414059603312139    3    1    6    3
 1.588916282748396e-05    3    1    6    4
 -0.000213440236865773    3    1    6    5
 0.00181427481876847    3    1    6    6
 -0.0004565713802475077    3    1    7    1
 0.0001864415419155513    3    1    7    2
 0.0001533706458672905    3    1    7    3
 -0.0006366665252506167    3    1    7    4
 0.0002284067180374791    3    1    7    5
 -3.480339219315432e-06    3    1    7    6
 0.001364360162915786    3    1    7    7
 0.0008316860290280685    3    1    8    1
 0.0003941347368493173    3    1    8    2
 -0.0005578065147594    3    1    8    3
 0.0001429923393623428    3    1    8    4
 -0.000152668695334019    3    1    8    5
 -5.688038288920614e-05    3    1    8    6
 -0.0004142612302506943    3    1    8    7
 0.001658363966406366    3    1    8    8
 2.703749995259836e-05    3    1    9    1
 3.526359410972596e-05    3    1    9    2
 -0.0003410120347600899    3    1    9    3
 -0.0002076600426483437    3    1    9    4
 0.000245576483093108    3    1    9    5
 -9.194138161553411e-05    3    1    9    6
 0.0002718884410829106    3    1    9    7
 -0.0003282108510379719    3    1    9    8
 0.00139826969819356    3    1    9    9
 0.0001867062327677634    3    1   10    1
 0.0004534521549070029    3    1   10    2
 0.0001153538736597655    3    1   10    3
 -6.955672278472036e-05    3    1   10    4
 -0.0002164730202673849    3    1   10    5
 1.754522595934146e-05    3    1   10    6
 -8.644854671507288e-05    3    1   10    7
 9.148150726023013e-05    3    1   10    8
 5.107880656740624e-05    3    1   10    9
 0.001819517712821517    3    1   10   10
 0.0179209415534394    3    2    1    1
 0.0001512300181159915    3    2    2    1
 0.01506674224359958    3    2    2    2
 0.002763002996571137    3    2    3    1
 0.01741740807703843    3    2    3    2
 0.01319712397429141    3    2    3    3
 0.001307851839192254    3    2    4    1
 -0.001219979259982841    3    2    4    2
 0.004415539278928875    3    2    4    3
 0.01005922804492807    3    2    4    4
 -0.0002235955969619506    3    2    5    1
 0.004824770068618147    3    2    5    2
 -0.0008707460465849631    3    2    5    3
 -0.004128923370201727    3    2    5    4
 0.01129384542557822    3    2    5    5
 -0.0001401669729019711    3    2    6    1
 -1.592538740998258e-05    3    2    6    2
 -0.0003849990353010328    3    2    6    3
 -0.0004423336491940119    3    2    6    4
 0.0005313477435930795    3    2    6    5
 -0.001951638847012068    3    2    6    6
 -0.0002242711324813326    3    2    7    1
 -6.395663754497169e-06    3    2    7    2
 -0.0001212098369385222    3    2    7    3
 0.0004969777147648197    3    2    7    4
 1.611960116226048e-05    3    2    7    5
 3.981007743503184e-05    3    2    7    6
 -0.001788646378422864    3    2    7    7
 0.0002141018633813048    3    2    8    1
 0.0002797866086780123    3    2    8    2
 0.000484806994380897    3    2    8    3
 0.000107719968787263    3    2    8    4
 0.0001118476390206461    3    2    8    5
 8.066874326575495e-05    3    2    8    6
 0.0001721333542948373    3    2    8    7
 -0.001659910900569215    3    2    8    8
 -0.0005472968138902734    3    2    9    1
 0.0002806979135831249    3    2    9    2
 0.0001375123709945924    3    2    9    3
 0.0001520494454115844    3    2    9    4
 4.130057029526924e-05    3    2    9    5
 -2.801563365644164e-05    3    2    9    6
 -0.0001029779929141058    3    2    9    7
 0.0001289375872710636    3    2    9    8
 -0.001704597344388445    3    2    9    9
 0.0003265040236688985    3    2   10    1
 -0.0004153284026725036    3    2   10    2
 -0.0002024872277485263    3    2   10    3
 3.832564861018876e-06    3    2   10    4
 -7.894987460014656e-05    3    2   10    5
 5.362363533989789e-05    3    2   10    6
 0.0002041480131579335    3    2   10    7
 -0.0001302140737155946    3    2   10    8
 -5.449793097336604e-05    3    2   10    9
 -0.001852416983151711    3    2   10   10
 0.6052427189696993    3    3    1    1
 0.0233461598351214    3    3    2    1
 0.6199003569671496    3    3    2    2
 -0.003620838761850721    3    3    3    1
 0.01319712397429141    3    3    3    2
 0.5882506660767678    3    3    3    3
 0.005456108075509888    3    3    4    1
 -0.01870820638483131    3    3    4    2
 0.01646192723857361    3    3    4    3
 0.5487733703290388    3    3    4    4
 -0.004275037223229611    3    3    5    1
 0.001019807779695837    3    3    5    2
 0.0183247540456114    3    3    5    3
 0.01731970664602823    3    3    5    4
 0.5995058716689514    3    3    5    5
 0.0004234019843327365    3    3    6    1
 0.0004872679755481057    3    3    6    2
 -0.005475730778322098    3    3    6    3
 -0.006692088446417031    3    3    6    4
 0.01092335664964381    3    3    6    5
 0.1878254727283672    3    3    6    6
 -0.003838112311636801    3    3    7    1
 0.002642777947351973    3    3    7    2
 -0.004739312049100783    3    3    7    3
 0.01209575931782305    3    3    7    4
 0.004722149948204132    3    3    7    5
 -0.002436829424760061    3    3    7    6
 0.1783679015392388    3    3    7    7
 -0.001353414896113891    3    3    8    1
 -0.004900242653284371    3    3    8    2
 0.0121351155274675    3    3    8    3
 0.004017236008595824    3    3    8    4
 0.005527242779227799    3    3    8    5
 -0.005229965252650996    3    3    8    6
 -0.004805112770155659    3    3    8    7
 0.1746477267171848    3    3    8    8
 -0.00976999098717002    3    3    9    1
 0.005410236151148583    3    3    9    2
 3.898949243263426e-05    3    3    9    3
 0.005569860216119819    3    3    9    4
 0.001297203119367355    3    3    9    5
 -0.0008101589971816706    3    3    9    6
 0.002253814038645362    3    3    9    7
 -0.001256733266665701    3    3    9    8
 0.1822715109355542    3    3    9    9
 0.004681355387187113    3    3   10    1
 -0.008788344666124073    3    3   10    2
 0.003651095668376667    3    3   10    3
 0.0002122092877454141    3    3   10    4
 9.454641699096198e-06    3    3   10    5
 -0.0003259690981684462    3    3   10    6
 -0.001673542384817795    3    3   10    7
 0.0008548985911457079    3    3   10    8
 0.0008473451788652911    3    3   10    9
 0.1833257852349103    3    3   10   10
 0.008405983382186186    4    1    1    1
 -0.001540333191490654    4    1    2    1
 0.01171879454202272    4    1    2    2
 -0.001240036115376808    4    1    3    1
 0.001307851839192255    4    1    3    2
 0.005456108075509891    4    1    3    3
 0.01664776214204579    4    1    4    1
 0.002245710927224174    4    1    4    2
 0.004363744874416244    4    1    4    3
 0.007354687374574712    4    1    4    4
 0.00484009715982676    4    1    5    1
 -0.0005837419324293435    4    1    5    2
 -0.002837114250970799    4    1    5    3
 0.0003343454562111312    4    1    5    4
 0.004441780726460383    4    1    5    5
 -6.519879318783141e-05    4    1    6    1
 -9.667281509035254e-05    4    1    6    2
 -0.0003384010297769947    4    1    6    3
 -0.0002240831110649481    4    1    6    4
 0.0002871908133855045    4    1    6    5
 -0.001560088233973797    4    1    6    6
 0.0003943667130504193    4    1    7    1
 0.0003191772181985457    4    1    7    2
 -0.0001025472785932706    4    1    7    3
 0.0002958824068385228    4    1    7    4
 9.687520371763996e-05    4    1    7    5
 3.748936725296924e-07    4    1    7    6
 -0.001410188969441231    4    1    7    7
 0.000113001377465392    4    1    8    1
 -6.479057889286983e-05    4    1    8    2
 0.0003281793825237985    4    1    8    3
 0.0001164797666104845    4    1    8    4
 2.90785184292565e-05    4    1    8    5
 8.139960856219857e-05    4    1    8    6
 0.0001214690918321824    4    1    8    7
 -0.00125000013894391    4    1    8    8
 -0.0001675404478548007    4    1    9    1
 0.0003308156487388851    4    1    9    2
 -1.446607504570819e-05    4    1    9    3
 -0.0001653142637967873    4    1    9    4
 -6.048547315252012e-05    4    1    9    5
 7.469330447180538e-05    4    1    9    6
 -0.0002252868824568997    4    1    9    7
 8.214379658261757e-05    4    1    9    8
 -0.001526041811127754    4    1    9    9
 0.0002004275198158287    4    1   10    1
 -0.0004058512153295095    4    1   10    2
 1.969151533591364e-05    4    1   10    3
 0.0001563571556094217    4    1   10    4
 6.593200627275756e-05    4    1   10    5
 -6.284323493143983e-05    4    1   10    6
 0.0001190106064552185    4    1   10    7
 -2.699567710730615e-06    4    1   10    8
 -3.35211081559211e-05    4    1   10    9
 -0.001329717103192049    4    1   10   10
 -0.009476696338582002    4    2    1    1
 -0.001924489893848017    4    2    2    1
 -0.01364509449877085    4    2    2    2
 0.005163018478918601    4    2    3    1
 -0.001219979259982842    4    2    3    2
 -0.0187082063848313    4    2    3    3
 0.002245710927224176    4    2    4    1
 0.02479383699046833    4    2    4    2
 0.0002396952588502168    4    2    4    3
 -0.01072472538517698    4    2    4    4
 0.00735833191861154    4    2    5    1
 -0.0008351636184910808    4    2    5    2
 0.000555899929017261    4    2    5    3
 0.001931174431496954    4    2    5    4
 -0.005467988111314857    4    2    5    5
 -0.0001404992140377418    4    2    6    1
 -0.0003629066094146587    4    2    6    2
 4.3510613469364e-05    4    2    6    3
 0.0007188626813762875    4    2    6    4
 -0.0004672095564790232    4    2    6    5
 0.00180475333014282    4    2    6    6
 0.0001248535618651236    4    2    7    1
 0.000763554169420668    4    2    7    2
 0.0006215372302533932    4    2    7    3
 -0.0008245691869510618    4    2    7    4
 -0.000449755865937233    4    2    7    5
 2.78823586286213e-05    4    2    7    6
 0.002128163444389568    4    2    7    7
 0.0004326460914164104    4    2    8    1
 0.0001998975005230619    4    2    8    2
 -0.0005732541321225159    4    2    8    3
 -0.0003670606346695983    4    2    8    4
 3.4536850903029e-05    4    2    8    5
 -2.381973184857072e-05    4    2    8    6
 6.422208993187001e-05    4    2    8    7
 0.0009745856498390257    4    2    8    8
 0.0006741270279235076    4    2    9    1
 0.0002104565294540164    4    2    9    2
 4.922106263435207e-05    4    2    9    3
 -8.483293855467962e-05    4    2    9    4
 -0.0003288987363825235    4    2    9    5
 2.650252301739081e-05    4    2    9    6
 0.0001371057278914469    4    2    9    7
 6.67314303899264e-05    4    2    9    8
 0.001920702585147268    4    2    9    9
 -5.174902760314504e-05    4    2   10    1
 0.0002289024699247511    4    2   10    2
 -0.0001672989594273078    4    2   10    3
 -0.0003399069923030321    4    2   10    4
 0.0002317796479438453    4    2   10    5
 -2.236940549896892e-05    4    2   10    6
 -0.0004057496853817319    4    2   10    7
 1.992443963802124e-05    4    2   10    8
 2.063654788195443e-05    4    2   10    9
 0.001130733432214186    4    2   10   10
 0.02001865800803199    4    3    1    1
 -0.004399314839512357    4    3    2    1
 0.01894753193632849    4    3    2    2
 -0.0002165399857097938    4    3    3    1
 0.004415539278928873    4    3    3    2
 0.01646192723857359    4    3    3    3
 0.00436374487441624    4    3    4    1
 0.0002396952588502159    4    3    4    2
 0.02004709389642435    4    3    4    3
 0.01683205965974699    4    3    4    4
 0.003458473681552605    4    3    5    1
 0.00305762971952334    4    3    5    2
 -0.0008222075734679322    4    3    5    3
 -0.001093682642487393    4    3    5    4
 0.008798073661556351    4    3    5    5
 -9.722154740297584e-05    4    3    6    1
 -8.049186377137611e-08    4    3    6    2
 -0.0008262837905446196    4    3    6    3
 -0.0007665503550110875    4    3    6    4
 0.0006345222423084722    4    3    6    5
 -0.005344949910901973    4    3    6    6
 -0.0002319935007751627    4    3    7    1
 0.0005221434898601491    4    3    7    2
 1.536720309000353e-05    4    3    7    3
 0.0008682145378730978    4    3    7    4
 0.0001008017840454711    4    3    7    5
 4.540811313479542e-05    4    3    7    6
 -0.005113998020251496    4    3    7    7
 0.000290180979105725    4    3    8    1
 -0.0001348581256234949    4    3    8    2
 0.001037649495185708    4    3    8    3
 0.0005371389926953926    4    3    8    4
 0.0001762146917548976    4    3    8    5
 0.000126665229068874    4    3    8    6
 0.0004031107572623672    4    3    8    7
 -0.0046662133337728    4    3    8    8
 -0.0008935645776767733    4    3    9    1
 0.0005441856615373871    4    3    9    2
 0.0001158839512446523    4    3    9    3
 0.0001557849554214253    4    3    9    4
 2.502613379532682e-05    4    3    9    5
 1.939563383093645e-06    4    3    9    6
 -0.000256243260417971    4    3    9    7
 0.0002251414152434677    4    3    9    8
 -0.005012999121620123    4    3    9    9
 0.000475864180149788    4    3   10    1
 -0.0009116564431587755    4    3   10    2
 -4.193334999143876e-05    4    3   10    3
 0.000133159291109046    4    3   10    4
 3.655193803884223e-05    4    3   10    5
 -5.487364708379315e-05    4    3   10    6
 0.0002654033229138192    4    3   10    7
 -6.093572007054155e-05    4    3   10    8
 -0.0001540672071940379    4    3   10    9
 -0.005017366497190747    4    3   10   10
 0.624730705340895    4    4    1    1
 0.02447805898470914    4    4    2    1
 0.6067012195746642    4    4    2    2
 -0.01178913012495263    4    4    3    1
 0.01005922804492808    4    4    3    2
 0.5487733703290386    4    4    3    3
 0.007354687374574716    4    4    4    1
 -0.01072472538517699    4    4    4    2
 0.01683205965974698    4    4    4    3
 0.5920574145170798    4    4    4    4
 0.001227879123276827    4    4    5    1
 -0.007503031638814979    4    4    5    2
 0.0216878564973852    4    4    5    3
 0.01463206626162193    4    4    5    4
 0.6003542763846941    4    4    5    5
 -7.913873606960241e-05    4    4    6    1
 0.001258029369599809    4    4    6    2
 -0.006256921172917619    4    4    6    3
 -0.006028773785886139    4    4    6    4
 0.01101219164223912    4    4    6    5
 0.1882797416082102    4    4    6    6
 -0.004007739482852045    4    4    7    1
 0.002290059228019161    4    4    7    2
 -0.00385666179742406    4    4    7    3
 0.01272229332774524    4    4    7    4
 0.002835736878358984    4    4    7    5
 -0.002303678084801253    4    4    7    6
 0.1809506678426495    4    4    7    7
 -0.0009945823142216215    4    4    8    1
 -0.005340755272174099    4    4    8    2
 0.01230760621254589    4    4    8    3
 0.003131692146782097    4    4    8    4
 0.006429392107796654    4    4    8    5
 -0.005268161486598184    4    4    8    6
 -0.003353962301608259    4    4    8    7
 0.1730342435210365    4    4    8    8
 -0.009093367052359741    4    4    9    1
 0.005125740275683115    4    4    9    2
 8.56069229783281e-05    4    4    9    3
 0.005938256760477014    4    4    9    4
 0.0002485835799240775    4    4    9    5
 -0.0007295580963409955    4    4    9    6
 0.001990728904142084    4    4    9    7
 -0.0002379227844474272    4    4    9    8
 0.1843533519778472    4    4    9    9
 0.004884107706227712    4    4   10    1
 -0.009520420977555837    4    4   10    2
 0.003489956513331091    4    4   10    3
 0.0004190221156236877    4    4   10    4
 0.0007241562075779853    4    4   10    5
 -0.000211805498858113    4    4   10    6
 -0.002311519787987564    4    4   10    7
 0.0006406533560376982    4    4   10    8
 0.0007141226160268946    4    4   10    9
 0.1818499571223802    4    4   10   10
 0.0007551226903131997    5    1    1    1
 -0.001144970638474063    5    1    2    1
 0.006074986758607306    5    1    2    2
 -0.0002892061501790989    5    1    3    1
 -0.0002235955969619502    5    1    3    2
 -0.004275037223229612    5    1    3    3
 0.004840097159826764    5    1    4    1
 0.007358331918611539    5    1    4    2
 0.003458473681552607    5    1    4    3
 0.001227879123276829    5    1    4    4
 0.02367818939029509    5    1    5    1
 -0.002953897435359298    5    1    5    2
 -0.004056417844507055    5    1    5    3
 0.002113745337360792    5    1    5    4
 0.0006305782188640652    5    1    5    5
 0.0005240084831885103    5    1    6    1
 -0.000284111355237781    5    1    6    2
 -0.0001168701123738958    5    1    6    3
 -4.751747697466336e-05    5    1    6    4
 1.62829854247312e-05    5    1    6    5
 -0.0004517724454163363    5    1    6    6
 0.0003290394882867344    5    1    7    1
 0.0004241088633719343    5    1    7    2
 0.0003559284119560942    5    1    7    3
 0.0001458128043838837    5    1    7    4
 -7.657202496304351e-05    5    1    7    5
 -6.012190465761097e-05    5    1    7    6
 -0.000413381158443518    5    1    7    7
 0.0003395534622769559    5    1    8    1
 -0.0001251414474915344    5    1    8    2
 -0.0002033630342389734    5    1    8    3
 -7.762826509494523e-06    5    1    8    4
 -0.0001177363802658368    5    1    8    5
 9.026680305376957e-05    5    1    8    6
 -5.449390063094439e-05    5    1    8    7
 -0.0004035057706764364    5    1    8    8
 0.0001265160356812175    5    1    9    1
 0.0002600481304132855    5    1    9    2
 0.0001914628967061574    5    1    9    3
 -6.431160457877345e-05    5    1    9    4
 -0.0004257725135299845    5    1    9    5
 -1.665765177683448e-05    5    1    9    6
 -7.131206041266963e-05    5    1    9    7
 1.947686466036448e-05    5    1    9    8
 -0.0006052895954058126    5    1    9    9
 4.406108674818046e-05    5    1   10    1
 -0.0002481846886247723    5    1   10    2
 -4.946294448189173e-05    5    1   10    3
 -6.424500675031587e-05    5    1   10    4
 0.0002739407598222542    5    1   10    5
 -0.0001267760901886644    5    1   10    6
 -2.995295019742687e-05    5    1   10    7
 4.793381473033639e-05    5    1   10    8
 1.941080776931148e-05    5    1   10    9
 -0.0004468322944520131    5    1   10   10
 -0.0009497489065130709    5    2    1    1
 -0.00257237248591305    5    2    2    1
 -0.003399215589707474    5    2    2    2
 0.007287972160413969    5    2    3    1
 0.004824770068618148    5    2    3    2
 0.001019807779695835    5    2    3    3
 -0.0005837419324293436    5    2    4    1
 -0.0008351636184910806    5    2    4    2
 0.003057629719523338    5    2    4    3
 -0.007503031638814983    5    2    4    4
 -0.002953897435359296    5    2    5    1
 0.02297239326820951    5    2    5    2
 0.001547078659783299    5    2    5    3
 -0.003927656157232318    5    2    5    4
 -0.003106740045956746    5    2    5    5
 -0.0002748227860428135    5    2    6    1
 0.0004662021008297419    5    2    6    2
 4.378357409947474e-06    5    2    6    3
 -9.040279051079625e-05    5    2    6    4
 -3.417226888620875e-06    5    2    6    5
 -0.0007788005976939541    5    2    6    6
 -0.0003001757407262579    5    2    7    1
 0.0001413911991108567    5    2    7    2
 -1.384933805182374e-05    5    2    7    3
 -0.0004467648595425359    5    2    7    4
 5.112273206703924e-05    5    2    7    5
 0.0001110162699552841    5    2    7    6
 -0.0007013450234799316    5    2    7    7
 0.0002753449486165979    5    2    8    1
 0.0004981134684609598    5    2    8    2
 -6.662859047672007e-06    5    2    8    3
 0.0001680412336450243    5    2    8    4
 -0.0002756367850901426    5    2    8    5
 1.746082742506183e-05    5    2    8    6
 -2.443794348547193e-05    5    2    8    7
 -0.0006716576797300589    5    2    8    8
 -0.0001752569070286062    5    2    9    1
 4.152760687468912e-05    5    2    9    2
 -6.641033462949897e-05    5    2    9    3
 -0.0001812364062419569    5    2    9    4
 0.0003136015483263549    5    2    9    5
 -0.0001031215420463697    5    2    9    6
 4.293340157122768e-05    5    2    9    7
 -2.172236469251376e-05    5    2    9    8
 -0.0007415585641744626    5    2    9    9
 0.0001489385856524304    5    2   10    1
 0.0001956645523430892    5    2   10    2
 -0.0001134952973335132    5    2   10    3
 0.0001045456421304978    5    2   10    4
 -0.0004313747738753958    5    2   10    5
 -1.102979342372336e-05    5    2   10    6
 9.780533022399525e-05    5    2   10    7
 -3.81020261077434e-05    5    2   10    8
 1.639191696235696e-05    5    2   10    9
 -0.0007375966859059964    5    2   10   10
 0.02212423654193138    5    3    1    1
 -0.004889382070127296    5    3    2    1
 0.01148623434709482    5    3    2    2
 0.002223661961279706    5    3    3    1
 -0.0008707460465849644    5    3    3    2
 0.01832475404561138    5    3    3    3
 -0.002837114250970801    5    3    4    1
 0.0005558999290172601    5    3    4    2
 -0.000822207573467932    5    3    4    3
 0.0216878564973852    5    3    4    4
 -0.004056417844507052    5    3    5    1
 0.0015470786597833    5    3    5    2
 0.02291387465572707    5    3    5    3
 0.004388924540440605    5    3    5    4
 0.02203800389155685    5    3    5    5
 -0.0001795180553929463    5    3    6    1
 0.0001310121895488531    5    3    6    2
 0.0001822512926078301    5    3    6    3
 -0.0001025965153440878    5    3    6    4
 0.0002590509351803886    5    3    6    5
 0.004381529531520221    5    3    6    6
 -0.0005108100588963373    5    3    7    1
 0.0001422320661625601    5    3    7    2
 -0.0001783597553285323    5    3    7    3
 0.0006129102179903292    5    3    7    4
 -9.61003605746036e-06    5    3    7    5
 -0.0001033651810795348    5    3    7    6
 0.004187144836771417    5    3    7    7
 0.0001564363564610273    5    3    8    1
 -0.0001785446748016761    5    3    8    2
 0.0009625195182438151    5    3    8    3
 8.390277484261911e-05    5    3    8    4
 0.0009819481444950956    5    3    8    5
 -0.000253174773650568    5    3    8    6
 -1.650013892144238e-05    5    3    8    7
 0.003932007594623329    5    3    8    8
 -0.0005414958099966114    5    3    9    1
 0.0003085532972803549    5    3    9    2
 -8.103398149496936e-05    5    3    9    3
 0.0004768707777194622    5    3    9    4
 0.0001261681964561907    5    3    9    5