 &FCI NORB=   8,NELEC= 8,MS2=0,
  ORBSYM=1,1,1,1,1,1,1,1,
  ISYM=1,
 &END
 0.5285814018324488    1    1    1    1
 9.620483663180801e-14    1    1    2    1
 0.5322915341886095    1    1    2    2
 0.4827673583079479    1    1    3    3
 0.4827673583079472    1    1    4    4
 -6.090787596502167e-14    1    1    5    3
 -1.705775277971444e-14    1    1    5    4
 0.4792933675496718    1    1    5    5
 1.694298997975685e-14    1    1    6    3
 -6.012980505220103e-14    1    1    6    4
 0.4792933675496714    1    1    6    6
 -0.03981971774127175    1    1    7    1
 2.712326890863537e-14    1    1    7    2
 0.3898191608345434    1    1    7    7
 2.647188024340608e-14    1    1    8    1
 0.05760256163877965    1    1    8    2
 1.025251919702952e-15    1    1    8    3
 -2.567650952967071e-14    1    1    8    7
 0.3989822516228718    1    1    8    8
 9.620873975962896e-14    2    1    1    1
 0.1986566602678908    2    1    2    1
 -8.467033497938647e-14    2    1    2    2
 1.759681809987423e-14    2    1    3    3
 1.706761901948406e-14    2    1    4    4
 -0.1284932138953392    2    1    5    3
 -0.03607145520091931    2    1    5    4
 -3.141150534125003e-15    2    1    5    5
 0.03607145520091936    2    1    6    3
 -0.128493213895339    2    1    6    4
 -2.439653305560279e-15    2    1    6    6
 8.393676378948278e-15    2    1    7    1
 0.05226645858607522    2    1    7    2
 1.514782223266398e-14    2    1    7    7
 0.0006083264671313666    2    1    8    1
 2.658409516825833e-14    2    1    8    2
 -0.07608268332430947    2    1    8    7
 2.656555531110882e-14    2    1    8    8
 0.5322915341886095    2    2    1    1
 -8.464355518572608e-14    2    2    2    1
 0.5563939661669808    2    2    2    2
 0.4914540903109058    2    2    3    3
 0.491454090310905    2    2    4    4
 5.764225902149533e-14    2    2    5    3
 1.626498415119304e-14    2    2    5    4
 0.4799947580534016    2    2    5    5
 -1.630499121135776e-14    2    2    6    3
 5.830729508157079e-14    2    2    6    4
 0.4799947580534012    2    2    6    6
 -0.03799154940048761    2    2    7    1
 -2.266416221363698e-14    2    2    7    2
 0.4013433342664549    2    2    7    7
 3.15489821767212e-14    2    2    8    1
 0.07165094202547993    2    2    8    2
 1.252222509937076e-15    2    2    8    3
 4.836755995718534e-14    2    2    8    7
 0.4168614518224016    2    2    8    8
 0.04407225317237941    3    1    3    1
 -3.720140488588217e-15    3    1    3    2
 -1.274630211548938e-14    3    1    5    1
 -0.03158377591341582    3    1    5    2
 3.469170366148353e-15    3    1    6    1
 0.00886640409558607    3    1    6    2
 -0.0219692751967226    3    1    7    3
 -0.005982288508735965    3    1    8    5
 0.001679387147383601    3    1    8    6
 -3.721860666158978e-15    3    2    3    1
 0.02239818130455258    3    2    3    2
 -0.02906994907290893    3    2    5    1
 1.441559155000824e-14    3    2    5    2
 0.00816070618741426    3    2    6    1
 -4.066933435354259e-15    3    2    6    2
 4.888667595737139e-15    3    2    7    3
 0.002492525918372348    3    2    7    5
 -0.0006997181740269136    3    2    7    6
 0.00816091582009317    3    2    8    3
 1.165530887949073e-15    3    2    8    5
 0.4827673583079479    3    3    1    1
 1.752964211396309e-14    3    3    2    1
 0.4914540903109059    3    3    2    2
 0.548663993934599    3    3    3    3
 0.5055060680824517    3    3    4    4
 -1.397233023725519e-14    3    3    5    3
 -3.351268915152694e-15    3    3    5    4
 0.4998503598073568    3    3    5    5
 3.86260576475117e-15    3    3    6    3
 -1.115195446838718e-14    3    3    6    4
 -0.009290138024556423    3    3    6    5
 0.4693651533384836    3    3    6    6
 -0.07420456532873536    3    3    7    1
 1.599206442461312e-14    3    3    7    2
 0.3843468010470472    3    3    7    7
 2.48973191656009e-14    3    3    8    1
 0.08379802282515975    3    3    8    2
 1.653467924591184e-15    3    3    8    3
 1.343352651724435e-14    3    3    8    7
 0.4132260622652518    3    3    8    8
 0.04407225317237935    4    1    4    1
 -3.853336946874777e-15    4    1    4    2
 -3.67200178182678e-15    4    1    5    1
 -0.008866404095586068    4    1    5    2
 -1.241784057251899e-14    4    1    6    1
 -0.03158377591341573    4    1    6    2
 -0.02196927519672259    4    1    7    4
 -0.001679387147383595    4    1    8    5
 -0.005982288508735939    4    1    8    6
 -3.854544115169728e-15    4    2    4    1
 0.0223981813045525    4    2    4    2
 -0.008160706187414258    4    2    5    1
 4.031684098615667e-15    4    2    5    2
 -0.02906994907290882    4    2    6    1
 1.448709706916465e-14    4    2    6    2
 4.924837173134319e-15    4    2    7    4
 0.0006997181740269217    4    2    7    5
 0.00249252591837226    4    2    7    6
 0.00816091582009313    4    2    8    4
 1.165963298268647e-15    4    2    8    6
 0.02157896292607305    4    3    4    3
 -1.082711394498337e-15    4    3    5    3
 -1.29073760414631e-15    4    3    5    4
 0.009290138024556414    4    3    5    5
 0.01524260323443633    4    3    6    5
 -0.009290138024556385    4    3    6    6
 0.4827673583079471    4    4    1    1
 1.711538778650772e-14    4    4    2    1
 0.4914540903109051    4    4    2    2
 0.5055060680824518    4    4    3    3
 0.5486639939345971    4    4    4    4
 -1.136417349112406e-14    4    4    5    3
 -3.585998685495806e-15    4    4    5    4
 0.4693651533384834    4    4    5    5
 2.881131748108667e-15    4    4    6    3
 -1.275474409249966e-14    4    4    6    4
 0.009290138024556378    4    4    6    5
 0.4998503598073554    4    4    6    6
 -0.07420456532873546    4    4    7    1
 1.559031117902063e-14    4    4    7    2
 0.3843468010470468    4    4    7    7
 2.479947265505166e-14    4    4    8    1
 0.08379802282515958    4    4    8    2
 1.429897942264644e-15    4    4    8    3
 1.416245453859469e-14    4    4    8    7
 0.413226062265251    4    4    8    8
 -1.274126287201553e-14    5    1    3    1
 -0.02906994907290894    5    1    3    2
 -3.670471683971579e-15    5    1    4    1
 -0.00816070618741426    5    1    4    2
 0.07300223091468243    5    1    5    1
 -1.243685898419831e-14    5    1    5    2
 2.128505705023542e-15    5    1    7    3
 -0.02451658421667312    5    1    7    5
 -0.0192716740009073    5    1    8    3
 -0.00541007033987548    5    1    8    4
 -3.530501086791704e-15    5    1    8    5
 -0.03158377591341582    5    2    3    1
 1.441759804309724e-14    5    2    3    2
 -0.008866404095586066    5    2    4    1
 4.03113799393236e-15    5    2    4    2
 -1.243693079343377e-14    5    2    5    1
 0.03351993219576647    5    2    5    2
 0.007621912465895871    5    2    7    3
 0.002139673105871814    5    2    7    4
 6.018026788706665e-15    5    2    7    5
 5.01097915332066e-15    5    2    8    3
 1.415415771784459e-15    5    2    8    4
 0.003355242395786741    5    2    8    5
 -6.094731311240721e-14    5    3    1    1
 -0.1284932138953392    5    3    2    1
 5.765077019937046e-14    5    3    2    2
 -1.400051949373982e-14    5    3    3    3
 -1.088403455903886e-15    5    3    4    3
 -1.135400231949343e-14    5    3    4    4
 0.137999884217538    5    3    5    3
 0.03474399495064781    5    3    5    4
 4.491361709629826e-15    5    3    5    5
 -0.03474399495064785    5    3    6    3
 0.1095292243202506    5    3    6    4
 2.581556946972029e-15    5    3    6    6
 -6.531130791182015e-15    5    3    7    1
 -0.03265443367909383    5    3    7    2
 -8.935742934494212e-15    5    3    7    7
 -0.008829875049590515    5    3    8    1
 -1.332648621871672e-14    5    3    8    2
 0.04388882750660635    5    3    8    7
 -1.705062678991323e-14    5    3    8    8
 -1.704837043770365e-14    5    4    1    1
 -0.03607145520091933    5    4    2    1
 1.626569063756759e-14    5    4    2    2
 -3.35159417580444e-15    5    4    3    3
 -1.296841323564224e-15    5    4    4    3
 -3.572971318767035e-15    5    4    4    4
 0.03474399495064781    5    4    5    3
 0.0239888913965195    5    4    5    4
 1.320449825870096e-15    5    4    5    5
 0.004481768500767565    5    4    6    3
 0.03474399495064776    5    4    6    4
 -1.898088988080986e-15    5    4    7    1
 -0.009166966144424143    5    4    7    2
 -2.113954813651092e-15    5    4    7    7
 -0.002478780261037374    5    4    8    1
 -3.700838213966453e-15    5    4    8    2
 0.01232075863955686    5    4    8    7
 -4.665327108410486e-15    5    4    8    8
 0.479293367549672    5    5    1    1
 -3.088010419313561e-15    5    5    2    1
 0.4799947580534017    5    5    2    2
 0.4998503598073568    5    5    3    3
 0.009290138024556395    5    5    4    3
 0.4693651533384834    5    5    4    4
 4.489464355827977e-15    5    5    5    3
 1.317522480004385e-15    5    5    5    4
 0.4849834404514592    5    5    5    5
 3.820023724426802e-15    5    5    6    4
 0.4480069619288675    5    5    6    6
 -0.05589295899449653    5    5    7    1
 6.730637041194078e-15    5    5    7    2
 0.3734222865621362    5    5    7    7
 2.115252696060281e-14    5    5    8    1
 0.06435312184894923    5    5    8    2
 1.419286676853707e-15    5    5    8    3
 1.518823448827779e-14    5    5    8    7
 0.3894011244310692    5    5    8    8
 3.466587272011687e-15    6    1    3    1
 0.00816070618741426    6    1    3    2
 -1.241957299936676e-14    6    1    4    1
 -0.02906994907290882    6    1    4    2
 0.07300223091468233    6    1    6    1
 -1.234561743404085e-14    6    1    6    2
 1.98981337727307e-15    6    1    7    4
 -0.02451658421667301    6    1    7    6
 0.005410070339875487    6    1    8    3
 -0.01927167400090727    6    1    8    4
 -3.444319878391993e-15    6    1    8    6
 0.008866404095586072    6    2    3    1
 -4.066158168639849e-15    6    2    3    2
 -0.03158377591341573    6    2    4    1
 1.448679819449731e-14    6    2    4    2
 -1.234490865602906e-14    6    2    6    1
 0.03351993219576635    6    2    6    2
 -0.002139673105871802    6    2    7    3
 0.00762191246589581    6    2    7    4
 6.000793903394776e-15    6    2    7    6
 -1.404229007650071e-15    6    2    8    3
 5.024486152455814e-15    6    2    8    4
 0.003355242395786703    6    2    8    6
 1.695969068643192e-14    6    3    1    1
 0.03607145520091937    6    3    2    1
 -1.630631760405662e-14    6    3    2    2
 3.844526693524974e-15    6    3    3    3
 2.890729054917532e-15    6    3    4    4
 -0.03474399495064785    6    3    5    3
 0.004481768500767561    6    3    5    4
 0.02398889139651952    6    3    6    3
 -0.03474399495064778    6    3    6    4
 -1.155235625991671e-15    6    3    6    6
 1.813175705918364e-15    6    3    7    1
 0.009166966144424193    6    3    7    2
 2.495612037833967e-15    6    3    7    7
 0.002478780261037379    6    3    8    1
 3.729199274076709e-15    6    3    8    2
 -0.01232075863955682    6    3    8    7
 4.722237402055254e-15    6    3    8    8
 -6.023369943201808e-14    6    4    1    1
 -0.128493213895339    6    4    2    1
 5.82668134921345e-14    6    4    2    2
 -1.109377346930618e-14    6    4    3    3
 -1.283427032185147e-14    6    4    4    4
 0.1095292243202506    6    4    5    3
 0.03474399495064775    6    4    5    4
 3.861060776655378e-15    6    4    5    5
 -0.03474399495064778    6    4    6    3
 0.1379998842175375    6    4    6    4
 4.305569797209924e-15    6    4    6    6
 -6.552316294960937e-15    6    4    7    1
 -0.03265443367909403    6    4    7    2
 -8.328441938861469e-15    6    4    7    7
 -0.008829875049590517    6    4    8    1
 -1.325966893366933e-14    6    4    8    2
 0.04388882750660632    6    4    8    7
 -1.659563606926393e-14    6    4    8    8
 -0.009290138024556419    6    5    3    3
 0.01524260323443633    6    5    4    3
 0.009290138024556383    6    5    4    4
 0.01848823926129569    6    5    6    5
 0.4792933675496714    6    6    1    1
 -2.411062999532919e-15    6    6    2    1
 0.4799947580534012    6    6    2    2
 0.4693651533384836    6    6    3    3
 -0.009290138024556385    6    6    4    3
 0.4998503598073556    6    6    4    4
 2.577799085301535e-15    6    6    5    3
 0.4480069619288674    6    6    5    5
 -1.184436663331789e-15    6    6    6    3
 4.393004243794657e-15    6    6    6    4
 0.4849834404514581    6    6    6    6
 -0.05589295899449587    6    6    7    1
 6.997964547686374e-15    6    6    7    2
 0.3734222865621309    6    6    7    7
 2.123674221749746e-14    6    6    8    1
 0.06435312184894899    6    6    8    2
 1.201607012194964e-15    6    6    8    3
 1.50297811015002e-14    6    6    8    7
 0.3894011244310691    6    6    8    8
 -0.03981971774127167    7    1    1    1
 8.561781925792156e-15    7    1    2    1
 -0.03799154940048765    7    1    2    2
 -0.0742045653287354    7    1    3    3
 -0.0742045653287353    7    1    4    4
 -6.573079008712936e-15    7    1    5    3
 -1.8950964590452e-15    7    1    5    4
 -0.05589295899449641    7    1    5    5
 1.863902353180192e-15    7    1    6    3
 -6.672308442027744e-15    7    1    6    4
 -0.05589295899449629    7    1    6    6
 0.03624798505283511    7    1    7    1
 1.221733218065291e-15    7    1    7    2
 -0.01336310976471194    7    1    7    7
 -1.186008756481893e-14    7    1    8    1
 -0.03557223012149963    7    1    8    2
 -1.645721319637472e-14    7    1    8    7
 -0.02756626165221525    7    1    8    8
 2.722073868394181e-14    7    2    1    1
 0.0522664585860753    7    2    2    1
 -2.245480277413003e-14    7    2    2    2
 1.567696710294553e-14    7    2    3    3
 1.555463182843948e-14    7    2    4    4
 -0.03265443367909388    7    2    5    3
 -0.00916696614442416    7    2    5    4
 6.812448825541106e-15    7    2    5    5
 0.009166966144424178    7    2    6    3
 -0.03265443367909385    7    2    6    4
 6.982627062006915e-15    7    2    6    6
 0.03367444463597565    7    2    7    2
 7.588222585008797e-15    7    2    7    7
 -0.01470047091336464    7    2    8    1
 1.517693306099521e-14    7    2    8    2
 -0.03837424326575735    7    2    8    7
 1.271725780238597e-14    7    2    8    8
 -0.02196927519672262    7    3    3    1
 4.903603970674874e-15    7    3    3    2
 2.095096445812276e-15    7    3    5    1
 0.007621912465895882    7    3    5    2
 -0.002139673105871808    7    3    6    2
 0.01919391172361905    7    3    7    3
 2.032059145517379e-15    7    3    8    3
 0.005548096215665169    7    3    8    5
 -0.001557497847760006    7    3    8    6
 -0.02196927519672259    7    4    4    1
 4.923983991494108e-15    7    4    4    2
 0.002139673105871818    7    4    5    2
 1.988320643892723e-15    7    4    6    1
 0.007621912465895839    7    4    6    2
 0.01919391172361901    7    4    7    4
 2.059397133890011e-15    7    4    8    4
 0.001557497847760002    7    4    8    5
 0.005548096215665172    7    4    8    6
 0.002492525918372357    7    5    3    2
 0.0006997181740269277    7    5    4    2
 -0.02451658421667305    7    5    5    1
 6.037719863773249e-15    7    5    5    2
 0.02184193737233331    7    5    7    5
 0.01128336894962462    7    5    8    3
 0.003167541111652378    7    5    8    4
 2.816225307426465e-15    7    5    8    5
 -0.0006997181740269149    7    6    3    2
 0.002492525918372308    7    6    4    2
 -0.02451658421667298    7    6    6    1
 6.014650956335989e-15    7    6    6    2
 0.02184193737233329    7    6    7    6
 -0.00316754111165238    7    6    8    3
 0.01128336894962461    7    6    8    4
 2.766593954512581e-15    7    6    8    6
 0.389819160834542    7    7    1    1
 1.466546068612518e-14    7    7    2    1
 0.4013433342664545    7    7    2    2
 0.3843468010470476    7    7    3    3
 0.3843468010470471    7    7    4    4
 -9.015357904651466e-15    7    7    5    3
 -2.463090495452569e-15    7    7    5    4
 0.3734222865621364    7    7    5    5
 2.446773252756662e-15    7    7    6    3
 -8.557960113134144e-15    7    7    6    4
 0.3734222865621362    7    7    6    6
 -0.01336310976471135    7    7    7    1
 9.16020731489553e-15    7    7    7    2
 0.3646887997363504    7    7    7    7
 6.720969267237642e-15    7    7    8    1
 0.0229032906320673    7    7    8    2
 -1.778958924614216e-15    7    7    8    7
 0.3579531551582131    7    7    8    8
 2.647244944954663e-14    8    1    1    1
 0.0006083264671313416    8    1    2    1
 3.152176870219181e-14    8    1    2    2
 2.486325625635291e-14    8    1    3    3
 2.479298343843338e-14    8    1    4    4
 -0.008829875049590524    8    1    5    3
 -0.002478780261037375    8    1    5    4
 2.116478514798889e-14    8    1    5    5
 0.002478780261037375    8    1    6    3
 -0.008829875049590494    8    1    6    4
 2.120188114120235e-14    8    1    6    6
 -1.183583531747315e-14    8    1    7    1
 -0.01470047091336466    8    1    7    2
 6.502841342660715e-15    8    1    7    7
 0.01590063373622555    8    1    8    1
 1.287342357280535e-14    8    1    8    2
 0.01965956268672759    8    1    8    7
 1.393736471719254e-14    8    1    8    8
 0.0576025616387797    8    2    1    1
 2.657032580066776e-14    8    2    2    1
 0.07165094202547995    8    2    2    2
 0.08379802282515968    8    2    3    3
 0.08379802282515954    8    2    4    4
 -1.336413347607229e-14    8    2    5    3
 -3.694462948457614e-15    8    2    5    4
 0.06435312184894919    8    2    5    5
 3.733002947557684e-15    8    2    6    3
 -1.327047301968789e-14    8    2    6    4
 0.06435312184894901    8    2    6    6
 -0.03557223012149977    8    2    7    1
 1.52584108542575e-14    8    2    7    2
 0.02290329063206834    8    2    7    7
 1.284855468547397e-14    8    2    8    1
 0.05152912896100609    8    2    8    2
 0.04314513165492308    8    2    8    8
 1.025251919702951e-15    8    3    1    1
 1.252222509937077e-15    8    3    2    2
 0.008160915820093172    8    3    3    2
 1.653467924591183e-15    8    3    3    3
 1.429897942264645e-15    8    3    4    4
 -0.0192716740009073    8    3    5    1
 5.00989963284956e-15    8    3    5    2
 1.419286676853707e-15    8    3    5    5
 0.005410070339875488    8    3    6    1
 -1.404078368315925e-15    8    3    6    2
 1.201607012194964e-15    8    3    6    6
 2.053438257106077e-15    8    3    7    3
 0.01128336894962465    8    3    7    5
 -0.00316754111165239    8    3    7    6
 0.0187081015412767    8    3    8    3
 1.888734394578373e-15    8    3    8    5
 0.008160915820093125    8    4    4    2
 -0.005410070339875481    8    4    5    1
 1.415579116612814e-15    8    4    5    2
 -0.01927167400090728    8    4    6    1
 5.022602539919182e-15    8    4    6    2
 2.072713338853796e-15    8    4    7    4
 0.003167541111652384    8    4    7    5
 0.01128336894962466    8    4    7    6
 0.01870810154127667    8    4    8    4
 1.865484398967427e-15    8    4    8    6
 -0.005982288508735971    8    5    3    1
 1.165844686522103e-15    8    5    3    2
 -0.001679387147383596    8    5    4    1
 -3.526260968716327e-15    8    5    5    1
 0.003355242395786742    8    5    5    2
 0.005548096215665184    8    5    7    3
 0.001557497847760006    8    5    7    4
 2.896334295445988e-15    8    5    7    5
 1.891783713188488e-15    8    5    8    3
 0.007288720913153846    8    5    8    5
 0.0016793871473836    8    6    3    1
 -0.005982288508735952    8    6    4    1
 1.165488139919165e-15    8    6    4    2
 -3.443844405231328e-15    8    6    6    1
 0.003355242395786705    8    6    6    2
 -0.001557497847760013    8    6    7    3
 0.005548096215665196    8    6    7    4
 2.822454989908059e-15    8    6    7    6
 1.870026401388841e-15    8    6    8    4
 0.007288720913153847    8    6    8    6
 -2.547994367579909e-14    8    7    1    1
 -0.07608268332430945    8    7    2    1
 4.851945668155055e-14    8    7    2    2
 1.361248353620725e-14    8    7    3    3
 1.375168154262724e-14    8    7    4    4
 0.04388882750660635    8    7    5    3
 0.01232075863955685    8    7    5    4
 1.535251960282924e-14    8    7    5    5
 -0.01232075863955687    8    7    6    3
 0.0438888275066063    8    7    6    4
 1.512821934916567e-14    8    7    6    6
 -1.646501945201662e-14    8    7    7    1
 -0.03837424326575755    8    7    7    2
 0.0196595626867275    8    7    8    1
 0.07558156374354785    8    7    8    7
 3.292938838272974e-15    8    7    8    8
 0.3989822516228716    8    8    1    1
 2.65670731941503e-14    8    8    2    1
 0.4168614518224017    8    8    2    2
 0.4132260622652517    8    8    3    3
 0.413226062265251    8    8    4    4
 -1.705493385406598e-14    8    8    5    3
 -4.67171874102279e-15    8    8    5    4
 0.3894011244310694    8    8    5    5
 4.706196370107829e-15    8    8    6    3
 -1.655267042139849e-14    8    8    6    4
 0.3894011244310691    8    8    6    6
 -0.02756626165221459    8    8    7    1
 1.258368409473576e-14    8    8    7    2
 0.3579531551582083    8    8    7    7
 1.38894971912773e-14    8    8    8    1
 0.04314513165492304    8    8    8    2
 3.371435075560925e-15    8    8    8    7
 0.3751914787377728    8    8    8    8
 -4.04352063657611    1    1  0  0
 1.336230583175e-14    2    1  0  0
 -3.959423820319484    2    2  0  0
 -3.988414504022083    3    3  0  0
 -3.988414504022078    4    4  0  0
 1.133182284326606e-15    5    1  0  0
 2.247817861040054e-15    5    2  0  0
 -1.446201866725973e-14    5    3  0  0
 -6.168191473403973e-15    5    4  0  0
 -3.463655795764965    5    5  0  0
 4.490731120918117e-15    6    3  0  0
 -1.882113492337706e-14    6    4  0  0
 -3.463655795764961    6    6  0  0
 0.4209490908305698    7    1  0  0
 -5.404613751788153e-14    7    2  0  0
 1.100386911849422e-15    7    3  0  0
 -2.462774339354072    7    7  0  0
 -1.59418256972198e-13    8    1  0  0
 -0.5051180441148538    8    2  0  0
 -9.279447048871935e-15    8    3  0  0
 3.026189088852881e-15    8    5  0  0
 -1.275288357536788e-13    8    7  0  0
 -2.3203374218185    8    8  0  0
 -90.37541741478036  0  0  0  0
