 &FCI NORB=   6,NELEC= 6,MS2=0,
  ORBSYM=1,1,1,1,1,1,
  ISYM=1,
 &END
 0.5563939661669796    1    1    1    1
 0.4914540903109055    1    1    2    2
 0.4914540903109066    1    1    3    3
 -3.40916531116342e-15    1    1    4    2
 0.4799947580534014    1    1    4    4
 1.324461373908292e-15    1    1    5    2
 3.216177324461e-15    1    1    5    3
 0.4799947580534011    1    1    5    5
 2.521420572332289e-15    1    1    6    1
 0.4013433342664623    1    1    6    6
 0.02239818130455248    2    1    2    1
 0.002455215876345304    2    1    6    4
 -0.0008211004672774742    2    1    6    5
 0.4914540903109056    2    2    1    1
 0.5486639939346    2    2    2    2
 0.5055060680824546    2    2    3    3
 0.4988670460966066    2    2    4    4
 -0.01073854180778155    2    2    5    4
 0.4703484670492351    2    2    5    5
 0.3843468010470537    2    2    6    6
 0.02239818130455254    3    1    3    1
 -0.0008211004672774682    3    1    6    4
 -0.002455215876345323    3    1    6    5
 0.02157896292607316    3    2    3    2
 -0.01073854180778152    3    2    4    4
 -0.01425928952368552    3    2    5    4
 0.01073854180778149    3    2    5    5
 0.4914540903109065    3    3    1    1
 0.5055060680824545    3    3    2    2
 0.5486639939346017    3    3    3    3
 1.07108332619843e-15    3    3    4    2
 0.4703484670492364    3    3    4    4
 -1.19522447494802e-15    3    3    5    3
 0.01073854180778147    3    3    5    4
 0.498867046096607    3    3    5    5
 0.3843468010470555    3    3    6    6
 0.03351993219576643    4    1    4    1
 0.007507821827025398    4    1    6    2
 -0.002510848870683812    4    1    6    3
 -3.400132385174351e-15    4    2    1    1
 1.025221574302293e-15    4    2    3    3
 0.1343224096191064    4    2    4    2
 -0.04016085028668851    4    2    4    3
 -0.04016085028668847    4    2    5    2
 -0.1058517497218193    4    2    5    3
 -1.356906123919921e-15    4    2    5    5
 -0.03216563703952701    4    2    6    1
 -0.04016085028668851    4    3    4    2
 0.02766636599495127    4    3    4    3
 -0.0008042939023359249    4    3    5    2
 0.04016085028668853    4    3    5    3
 0.01075718834253692    4    3    6    1
 0.4799947580534016    4    4    1    1
 0.4988670460966067    4    4    2    2
 -0.01073854180778155    4    4    3    2
 0.4703484670492364    4    4    3    3
 0.4849834404514596    4    4    4    4
 0.448006961928868    4    4    5    5
 0.3734222865621437    4    4    6    6
 0.03351993219576636    5    1    5    1
 -0.002510848870683793    5    1    6    2
 -0.007507821827025358    5    1    6    3
 1.333259343841644e-15    5    2    1    1
 -0.04016085028668846    5    2    4    2
 -0.0008042939023359256    5    2    4    3
 0.02766636599495121    5    2    5    2
 0.04016085028668848    5    2    5    3
 0.01075718834253691    5    2    6    1
 3.269933590065096e-15    5    3    1    1
 -1.263746052249104e-15    5    3    3    3
 -0.1058517497218194    5    3    4    2
 0.04016085028668855    5    3    4    3
 0.04016085028668849    5    3    5    2
 0.1343224096191066    5    3    5    3
 1.578327312595773e-15    5    3    5    5
 0.03216563703952692    5    3    6    1
 -0.01073854180778156    5    4    2    2
 -0.01425928952368552    5    4    3    2
 0.01073854180778147    5    4    3    3
 0.01848823926129571    5    4    5    4
 0.4799947580534012    5    5    1    1
 0.4703484670492351    5    5    2    2
 0.01073854180778152    5    5    3    2
 0.4988670460966071    5    5    3    3
 -1.382872765950949e-15    5    5    4    2
 0.4480069619288679    5    5    4    4
 1.542169170143382e-15    5    5    5    3
 0.4849834404514589    5    5    5    5
 0.3734222865621408    5    5    6    6
 2.387413183813081e-15    6    1    1    1
 -0.03216563703952693    6    1    4    2
 0.0107571883425369    6    1    4    3
 0.01075718834253689    6    1    5    2
 0.03216563703952695    6    1    5    3
 0.03367444463597676    6    1    6    1
 0.007507821827025372    6    2    4    1
 -0.0025108488706838    6    2    5    1
 0.01919391172362013    6    2    6    2
 -0.002510848870683807    6    3    4    1
 -0.007507821827025371    6    3    5    1
 0.01919391172362016    6    3    6    3
 0.002455215876345295    6    4    2    1
 -0.0008211004672774737    6    4    3    1
 0.0218419373723342    6    4    6    4
 -0.0008211004672774758    6    5    2    1
 -0.002455215876345304    6    5    3    1
 0.02184193737233418    6    5    6    5
 0.4013433342664607    6    6    1    1
 0.3843468010470548    6    6    2    2
 0.3843468010470555    6    6    3    3
 1.504845510355568e-15    6    6    4    2
 0.3734222865621409    6    6    4    4
 -1.566455298807057e-15    6    6    5    3
 0.3734222865621406    6    6    5    5
 1.64104840827406e-15    6    6    6    1
 0.3646887997363746    6    6    6    6
 -3.093497412210154    1    1  0  0
 -3.066952040578568    2    2  0  0
 -3.066952040578575    3    3  0  0
 7.151257608675525e-15    4    2  0  0
 -1.434624128728645e-15    4    3  0  0
 -2.578071291580302    4    4  0  0
 -4.034280156544848e-15    5    2  0  0
 -8.787113733649809e-15    5    3  0  0
 -2.578071291580301    5    5  0  0
 -4.094539823511472e-15    6    1  0  0
 -1.719384002737841    6    6  0  0
 -97.93387728610008  0  0  0  0
