 &FCI NORB=   6,NELEC= 6,MS2=0,
  ORBSYM=1,1,1,1,1,1,
  ISYM=1,
 &END
 -0.4784365117936779    1    1    1    1
 0.144805352399016    2    1    1    1
 -0.3053523946679023    2    1    2    1
 0.2331681516809855    2    2    1    1
 -0.1990472401968099    2    2    2    1
 -0.4541971702156724    2    2    2    2
 -0.318514147187434    3    1    1    1
 -0.1676517870268989    3    1    2    1
 0.2161323019188834    3    1    2    2
 -0.02553916611381752    3    1    3    1
 -0.04514975964346853    3    2    1    1
 0.296845539015721    3    2    2    1
 -0.3081127941331599    3    2    2    2
 0.3144130034253051    3    2    3    1
 -0.3365739612003666    3    2    3    2
 0.7828307158697471    3    3    1    1
 0.07788857290141998    3    3    2    1
 0.3118771865559805    3    3    2    2
 -0.23862145230092    3    3    3    1
 0.208766788652213    3    3    3    2
 -0.4411880836432594    3    3    3    3
 -0.2481154354292788    4    1    1    1
 0.001776230496003619    4    1    2    1
 0.1361485999184942    4    1    2    2
 0.03280871280359723    4    1    3    1
 -0.1657776735073183    4    1    3    2
 -0.07763809042468285    4    1    3    3
 -0.08989339144099728    4    1    4    1
 -0.09977025495473567    4    2    1    1
 0.04877524532229794    4    2    2    1
 0.0768150442922049    4    2    2    2
 -0.1630523255768512    4    2    3    1
 0.01323511493642006    4    2    3    2
 -0.08057909912906004    4    2    3    3
 -0.02318105486618308    4    2    4    1
 -0.09850939939356475    4    2    4    2
 0.2220859050888607    4    3    1    1
 -0.1028342687250681    4    3    2    1
 0.1725526259160911    4    3    2    2
 -0.1374123958314483    4    3    3    1
 0.2931355091932846    4    3    3    2
 -0.1149963700112939    4    3    3    3
 -0.1075573012354669    4    3    4    1
 -0.07635725937719527    4    3    4    2
 -0.100824024792343    4    3    4    3
 0.170338587221259    4    4    1    1
 -0.1506600670575207    4    4    2    1
 0.2299564807331001    4    4    2    2
 -0.03886915062155124    4    4    3    1
 -0.04888335768928012    4    4    3    2
 0.1677200238602963    4    4    3    3
 -0.01078874980222183    4    4    4    1
 0.2411811696543667    4    4    4    2
 -0.1620856586478988    4    4    4    3
 0.09817784841441445    4    4    4    4
 -0.02404991653430106    5    1    1    1
 -0.1895241915621326    5    1    2    1
 0.03427552202855846    5    1    2    2
 -0.05969115087698897    5    1    3    1
 -0.2216834628160128    5    1    3    2
 -0.4731511625100908    5    1    3    3
 0.1033711470770586    5    1    4    1
 0.03843158809764204    5    1    4    2
 -0.2907787276407229    5    1    4    3
 0.08170385522442226    5    1    4    4
 -0.1032750004844078    5    1    5    1
 -0.251527938608411    5    2    1    1
 0.1918489618080571    5    2    2    1
 -0.1782506974399078    5    2    2    2
 0.01251972201032725    5    2    3    1
 -0.1464455581604689    5    2    3    2
 -0.06704522013575671    5    2    3    3
 -0.1216168602413406    5    2    4    1
 0.001329031376616086    5    2    4    2
 0.03870799371167456    5    2    4    3
 0.08976620410482737    5    2    4    4
 0.1486550597197784    5    2    5    1
 -0.3514426137582481    5    2    5    2
 0.2186841045599094    5    3    1    1
 -0.1056580831801403    5    3    2    1
 0.1211868788594531    5    3    2    2
 -0.08436133973391391    5    3    3    1
 -0.03630088385591829    5    3    3    2
 -0.01179888884660879    5    3    3    3
 -0.02287860646680146    5    3    4    1
 -0.006761956007559166    5    3    4    2
 -0.06896047191317091    5    3    4    3
 0.05056397507546393    5    3    4    4
 -0.0972219643336988    5    3    5    1
 0.1205533464313741    5    3    5    2
 -0.3558942728127256    5    3    5    3
 0.1063027971645743    5    4    1    1
 -0.1282323513681834    5    4    2    1
 -0.06431639146183897    5    4    2    2
 0.003304701508927671    5    4    3    1
 0.2476046572183538    5    4    3    2
 0.03144707723615808    5    4    3    3
 -0.07047455860142139    5    4    4    1
 -0.0097724270960238    5    4    4    2
 0.1334860132947942    5    4    4    3
 -0.2364113633571815    5    4    4    4
 -0.3693548214330596    5    4    5    1
 0.2282886901635492    5    4    5    2
 0.01133793859741349    5    4    5    3
 0.08930440342012581    5    4    5    4
 0.124357399931349    5    5    1    1
 -0.03822282279228685    5    5    2    1
 0.3453369322398953    5    5    2    2
 -0.07088867326793558    5    5    3    1
 0.1374680502177985    5    5    3    2
 0.2595075297490375    5    5    3    3
 0.05462678464402776    5    5    4    1
 0.2425595623529677    5    5    4    2
 0.02048440727937528    5    5    4    3
 0.2836820199446022    5    5    4    4
 -0.01736211483242311    5    5    5    1
 0.2996023727758391    5    5    5    2
 0.3431331364263319    5    5    5    3
 -0.009173086937189332    5    5    5    4
 0.3636909238350817    5    5    5    5
 -0.02088960321445782    6    1    1    1
 -0.002827685618004022    6    1    2    1
 -0.00412110943597596    6    1    2    2
 -0.001779328459119145    6    1    3    1
 -0.05973595876767084    6    1    3    2
 0.3256244014389409    6    1    3    3
 -0.08421627576033734    6    1    4    1
 0.1683369775798834    6    1    4    2
 -0.1008123344416294    6    1    4    3
 0.1225342801408591    6    1    4    4
 0.1657446063843625    6    1    5    1
 -0.06136040396672021    6    1    5    2
 -0.004260382009679963    6    1    5    3
 0.09966455634702685    6    1    5    4
 0.0020020590342798    6    1    5    5
 -0.279785011940063    6    1    6    1
 0.1407176713854579    6    2    1    1
 -0.1891986133195101    6    2    2    1
 -0.05164098433100545    6    2    2    2
 0.004523263052265913    6    2    3    1
 0.2165685594417208    6    2    3    2
 0.1070440481703168    6    2    3    3
 0.08765065244778482    6    2    4    1
 -0.1938162144714144    6    2    4    2
 -0.01931603498861681    6    2    4    3
 0.1002180453538677    6    2    4    4
 -0.2535288848355384    6    2    5    1
 0.1438722799809164    6    2    5    2
 -0.05940056156423524    6    2    5    3
 0.0768828661900943    6    2    5    4
 -0.2029649923429896    6    2    5    5
 0.1596739970931246    6    2    6    1
 -0.3783407100371315    6    2    6    2
 -0.06755240180680379    6    3    1    1
 0.08029300033272554    6    3    2    1
 -0.161926415229754    6    3    2    2
 0.09825971880572724    6    3    3    1
 -0.02704004262538736    6    3    3    2
 0.181650646980791    6    3    3    3
 -0.1982589440660041    6    3    4    1
 -0.02859991807059467    6    3    4    2
 0.1254515063034967    6    3    4    3
 -0.2320465259719168    6    3    4    4
 -0.09361863824326121    6    3    5    1
 -0.08057610066908985    6    3    5    2
 0.2602939288731608    6    3    5    3
 0.1334466237050621    6    3    5    4
 0.003003888520810665    6    3    5    5
 -0.1746790099192791    6    3    6    1
 0.07214763622133283    6    3    6    2
 -0.2200384974467182    6    3    6    3
 -0.156096073187711    6    4    1    1
 0.2422740974423747    6    4    2    1
 -0.2155632283624853    6    4    2    2
 0.2307195707346564    6    4    3    1
 0.2179906591787243    6    4    3    2
 0.2373714166338764    6    4    3    3
 -0.1223205554849478    6    4    4    1
 -0.1077386517162407    6    4    4    2
 0.01342781461700612    6    4    4    3
 -0.3041080421581314    6    4    4    4
 -0.1423121633957959    6    4    5    1
 -0.154550985566889    6    4    5    2
 -0.07957948430815721    6    4    5    3
 0.2392055918919999    6    4    5    4
 -0.2223596876505799    6    4    5    5
 -0.1233501209170364    6    4    6    1
 0.2653871275336464    6    4    6    2
 -0.2162455702349293    6    4    6    3
 0.3888509694295378    6    4    6    4
 -0.1355221170717573    6    5    1    1
 -0.02472927542511205    6    5    2    1
 -0.1481663940045667    6    5    2    2
 -0.1450209389850674    6    5    3    1
 -0.2176648472888203    6    5    3    2
 -0.1079003610728736    6    5    3    3
 0.103771784139688    6    5    4    1
 0.09513328128629819    6    5    4    2
 -0.001356618566614047    6    5    4    3
 -0.1009551346168474    6    5    4    4
 -0.07447146117281787    6    5    5    1
 -0.1944567048465683    6    5    5    2
 0.06269897242283463    6    5    5    3
 0.06219978631479367    6    5    5    4
 0.09334684439360376    6    5    5    5
 0.1732407886113859    6    5    6    1
 0.1498304403197431    6    5    6    2
 -0.02625929481377526    6    5    6    3
 -0.2683330646154414    6    5    6    4
 -0.07101880536436035    6    5    6    5
 0.1264264828495199    6    6    1    1
 0.08869879418381142    6    6    2    1
 0.2401028940942322    6    6    2    2
 0.1623069259644369    6    6    3    1
 0.2524124247044896    6    6    3    2
 0.4033078046771886    6    6    3    3
 0.1779017523870204    6    6    4    1
 -0.1640838572959486    6    6    4    2
 -0.2981238627186302    6    6    4    3
 0.09918589501097923    6    6    4    4
 0.09873462499363382    6    6    5    1
 0.1265133376506793    6    6    5    2
 -0.1371292545009382    6    6    5    3
 -0.1727599094216299    6    6    5    4
 0.06064979290882554    6    6    5    5
 0.08813390329517012    6    6    6    1
 -0.3731671867089386    6    6    6    2
 -0.2209430639141116    6    6    6    3
 0.2717459612538626    6    6    6    4
 -0.03696766211280184    6    6    6    5
 0.4539117573913655    6    6    6    6
 0.1964064897648089    1    1  0  0
 -0.05403748768513857    2    1  0  0
 0.3699311715067231    2    2  0  0
 -0.08642980599646444    3    1  0  0
 0.05458550957794199    3    2  0  0
 0.5418919695557157    3    3  0  0
 0.4488538621198359    4    1  0  0
 -0.08968196795622381    4    2  0  0
 -0.07631653459623765    4    3  0  0
 -0.4018193493446669    4    4  0  0
 0.07754569285366401    5    1  0  0
 0.1559392017979552    5    2  0  0
 0.1136250785465501    5    3  0  0
 -0.1314827499338726    5    4  0  0
 0.3828735516123804    5    5  0  0
 0.5196958542117867    6    1  0  0
 0.0342787477395371    6    2  0  0
 -0.3913975337962693    6    3  0  0
 -0.4583606399166317    6    4  0  0
 -0.5671151780873884    6    5  0  0
 -0.1836240342448164    6    6  0  0
 0  0  0  0  0
