 &FCI NORB=   6,NELEC= 6,MS2=0,
  ORBSYM=1,1,1,1,1,1,
  ISYM=1,
 &END
 1.053035758146175    1    1    1    1
 0.0003808865331322682    2    1    1    1
 0.8503226590887831    2    1    2    1
 -0.3027452926451266    2    2    1    1
 -0.0005130166167452598    2    2    2    1
 0.9341606070358791    2    2    2    2
 0.001719591622175943    3    1    1    1
 0.0001547869772078711    3    1    2    1
 -0.0007226318292491791    3    1    2    2
 -0.4827888779872663    3    1    3    1
 -2.940414936420494e-05    3    2    1    1
 0.0007516837656415731    3    2    2    1
 5.260061319224975e-05    3    2    2    2
 0.0004701160137008669    3    2    3    1
 -0.05531589805393694    3    2    3    2
 -0.04783028756542661    3    3    1    1
 0.0006734322351445635    3    3    2    1
 0.5658514648154493    3    3    2    2
 0.0001320183510280572    3    3    3    1
 0.000190122976713921    3    3    3    2
 -1.171754551189158    3    3    3    3
 -0.00055291434892219    4    1    1    1
 0.0007275985503192173    4    1    2    1
 -0.002649831155560127    4    1    2    2
 9.495985431522919e-05    4    1    3    1
 -3.8384228698999e-07    4    1    3    2
 0.001894319036336645    4    1    3    3
 0.2206055400490689    4    1    4    1
 -0.001350107791435836    4    2    1    1
 0.002132920193965088    4    2    2    1
 0.0003373563613644125    4    2    2    2
 -2.420073469766033e-06    4    2    3    1
 -1.214256825080861e-05    4    2    3    2
 0.001732553029754259    4    2    3    3
 -0.0004129532692245435    4    2    4    1
 -0.150494448317175    4    2    4    2
 0.0001242850860955387    4    3    1    1
 4.44264384803198e-07    4    3    2    1
 4.677782021693811e-05    4    3    2    2
 -0.0001565925900518855    4    3    3    1
 0.000408228256788952    4    3    3    2
 -7.578529424097808e-05    4    3    3    3
 0.0005245366516744816    4    3    4    1
 3.092804827308517e-05    4    3    4    2
 -0.4090409738553931    4    3    4    3
 0.871102336762234    4    4    1    1
 7.614650235618638e-05    4    4    2    1
 0.9401521118508427    4    4    2    2
 0.001501702241975664    4    4    3    1
 0.0002173905268794768    4    4    3    2
 -0.9353125096030673    4    4    3    3
 0.0039719477262947    4    4    4    1
 0.001371718775858609    4    4    4    2
 0.0001708288828474042    4    4    4    3
 -0.5512075426331332    4    4    4    4
 -0.003625130823618569    5    1    1    1
 0.0002209062613608348    5    1    2    1
 0.0007011838303864292    5    1    2    2
 1.444748053194902e-05    5    1    3    1
 1.018272621573814e-07    5    1    3    2
 0.0005958423381093619    5    1    3    3
 -0.0002006116479065288    5    1    4    1
 4.183632911220255e-06    5    1    4    2
 -7.349530532198644e-07    5    1    4    3
 -0.002395477224333478    5    1    4    4
 -0.5484092316232962    5    1    5    1
 8.400559616884092e-05    5    2    1    1
 -0.0008373684331626881    5    2    2    1
 5.258045156602481e-05    5    2    2    2
 -1.819387831842268e-07    5    2    3    1
 -6.064161948193178e-05    5    2    3    2
 1.83588301505855e-05    5    2    3    3
 6.055719541030745e-08    5    2    4    1
 7.967988261734676e-05    5    2    4    2
 -1.039859057000207e-07    5    2    4    3
 0.0003187396946483676    5    2    4    4
 0.0007824158904563411    5    2    5    1
 0.1635919229209256    5    2    5    2
 0.0002091817742604186    5    3    1    1
 -1.206965200074593e-07    5    3    2    1
 8.035660166248349e-05    5    3    2    2
 0.0004494887830743698    5    3    3    1
 8.476528449455984e-06    5    3    3    2
 -0.000376738049615408    5    3    3    3
 -7.64014413749483e-08    5    3    4    1
 5.384531501224664e-08    5    3    4    2
 7.786603094283235e-05    5    3    4    3
 4.183269226144468e-05    5    3    4    4
 -0.0003613207197570851    5    3    5    1
 3.277753710138939e-05    5    3    5    2
 -0.1141686120246596    5    3    5    3
 -0.0004461890511963846    5    4    1    1
 8.500967521196443e-07    5    4    2    1
 -0.0001729493953145297    5    4    2    2
 -9.750714769477056e-07    5    4    3    1
 -1.960312267921406e-07    5    4    3    2
 0.0003608809454646498    5    4    3    3
 -0.001054866794337013    5    4    4    1
 7.838819561051469e-05    5    4    4    2
 6.382833675314996e-05    5    4    4    3
 -0.0004869673522256103    5    4    4    4
 0.0002087887095807463    5    4    5    1
 0.0009333032109068565    5    4    5    2
 -7.137791864880437e-05    5    4    5    3
 -0.644862286231515    5    4    5    4
 -0.8269680822077013    5    5    1    1
 0.001208527105753274    5    5    2    1
 0.2727754314486058    5    5    2    2
 -0.001053975531951042    5    5    3    1
 -1.858659571719567e-05    5    5    3    2
 0.4413618541816939    5    5    3    3
 0.0005752811093589285    5    5    4    1
 0.00157923814133279    5    5    4    2
 -0.0002067364463796643    5    5    4    3
 -1.095045948745322    5    5    4    4
 0.004149525997988876    5    5    5    1
 -0.000142696105048838    5    5    5    2
 -0.000343469031106066    5    5    5    3
 0.001018057668414081    5    5    5    4
 1.483012815634021    5    5    5    5
 -0.0008244344351252628    6    1    1    1
 -9.421441143714834e-05    6    1    2    1
 3.455414159715807e-05    6    1    2    2
 -0.002305304058478353    6    1    3    1
 3.090296277444457e-06    6    1    3    2
 -0.000801071923341876    6    1    3    3
 -0.0007137204446615885    6    1    4    1
 2.337861900353173e-06    6    1    4    2
 -7.972157402910219e-07    6    1    4    3
 0.0005010967990842679    6    1    4    4
 -0.0002728364447828118    6    1    5    1
 9.609151200197621e-07    6    1    5    2
 2.542085082693576e-06    6    1    5    3
 1.863527197873398e-07    6    1    5    4
 -0.0004809121592699681    6    1    5    5
 0.9939968463565657    6    1    6    1
 -0.0006089316328916561    6    2    1    1
 0.0008198801429269261    6    2    2    1
 0.001777491062097794    6    2    2    2
 3.628728000580679e-06    6    2    3    1
 0.0009533161299995896    6    2    3    2
 -0.0005853971888861992    6    2    3    3
 5.535158190104198e-08    6    2    4    1
 0.0004780287658870921    6    2    4    2
 3.94964427128859e-06    6    2    4    3
 0.0006730220605750814    6    2    4    4
 1.531031141527695e-06    6    2    5    1
 0.0001458696255448355    6    2    5    2
 -7.573013504716673e-08    6    2    5    3
 5.200557786906744e-07    6    2    5    4
 0.000139586228201343    6    2    5    5
 -0.001825773452751939    6    2    6    1
 -0.665504208921291    6    2    6    2
 -0.001014142476258355    6    3    1    1
 2.195168587664876e-06    6    3    2    1
 0.00146010308663137    6    3    2    2
 0.0002594231679486077    6    3    3    1
 0.0006162302099582915    6    3    3    2
 -0.0010532505402103    6    3    3    3
 -3.22104367177809e-07    6    3    4    1
 3.086566037737065e-06    6    3    4    2
 0.0005146203184837318    6    3    4    3
 -0.001382602866960371    6    3    4    4
 1.712777162960371e-06    6    3    5    1
 2.337335871397966e-07    6    3    5    2
 0.0001498725563667435    6    3    5    3
 7.077679164157881e-07    6    3    5    4
 0.0005807559549125876    6    3    5    5
 0.001626112413160557    6    3    6    1
 3.426605487570167e-05    6    3    6    2
 -0.966990823355715    6    3    6    3
 0.0002480507032547753    6    4    1    1
 4.097380111115477e-06    6    4    2    1
 0.00120955811124085    6    4    2    2
 1.973109457266768e-06    6    4    3    1
 3.985400995994407e-06    6    4    3    2
 -0.002186765570045655    6    4    3    3
 -0.0004591486544078145    6    4    4    1
 -0.0008266002725250025    6    4    4    2
 -0.00232418237497952    6    4    4    3
 -0.002451411813432727    6    4    4    4
 -1.465401239243236e-06    6    4    5    1
 1.158046159385403e-06    6    4    5    2
 2.836049266054835e-07    6    4    5    3
 -0.0003047096287279029    6    4    5    4
 -0.001072311385671693    6    4    5    5
 -0.0001871418530543481    6    4    6    1
 -0.002015460937398353    6    4    6    2
 0.0002710022073225619    6    4    6    3
 1.079695201930332    6    4    6    4
 -0.0002522710519348106    6    5    1    1
 9.782931151686222e-07    6    5    2    1
 0.000113733022823005    6    5    2    2
 3.037118863487779e-06    6    5    3    1
 2.557645958739583e-07    6    5    3    2
 -0.0001748161126274763    6    5    3    3
 3.045117876787947e-07    6    5    4    1
 7.646431321714969e-07    6    5    4    2
 9.005123358142429e-07    6    5    4    3
 -0.0001852250381850916    6    5    4    4
 -0.0001837325511510883    6    5    5    1
 0.0002496223600861236    6    5    5    2
 0.0001406526075222975    6    5    5    3
 -0.0004053655074076265    6    5    5    4
 0.0003240256092788446    6    5    5    5
 -0.00146002094888623    6    5    6    1
 -6.927798134998655e-05    6    5    6    2
 -0.000209515157182183    6    5    6    3
 -0.0003389099234428318    6    5    6    4
 -0.2044571061647943    6    5    6    5
 0.6012129777053569    6    6    1    1
 -0.001069247753453906    6    6    2    1
 -0.369462359144567    6    6    2    2
 -0.0006962707479431986    6    6    3    1
 -0.000208444193898549    6    6    3    2
 1.436797701419005    6    6    3    3
 0.001383652833279412    6    6    4    1
 -0.000372184341387004    6    6    4    2
 -0.0002036017522500695    6    6    4    3
 -0.04946137036441418    6    6    4    4
 -0.0006494510663967915    6    6    5    1
 -6.713234968212689e-05    6    6    5    2
 0.000373023563751414    6    6    5    3
 2.87501311273561e-05    6    6    5    4
 0.06894089105329838    6    6    5    5
 0.001861845287419419    6    6    6    1
 -0.0005668462596806112    6    6    6    2
 0.0005843419472251486    6    6    6    3
 0.00274706425570943    6    6    6    4
 9.081231428024678e-05    6    6    6    5
 -0.87038488140934    6    6    6    6
 0.646403119261781    1    1  0  0
 -0.00111680371517651    2    1  0  0
 -0.3670795964643983    2    2  0  0
 0.0004404200570908813    3    1  0  0
 -5.636101955110384e-05    3    2  0  0
 0.1159800840408186    3    3  0  0
 0.001518170811214629    4    1  0  0
 -0.0003489357959147358    4    2  0  0
 -2.299017424850865e-05    4    3  0  0
 -0.06611456200646798    4    4  0  0
 0.0008982675929957697    5    1  0  0
 -0.0002727760009549211    5    2  0  0
 -0.0003455780307426028    5    3  0  0
 0.0003800821085230544    5    4  0  0
 1.384259257145306    5    5  0  0
 0.0001439311362173838    6    1  0  0
 -0.0005061080794295313    6    2  0  0
 -0.0004145881422163943    6    3  0  0
 -0.0004123334158417377    6    4  0  0
 0.0001769361905191941    6    5  0  0
 0.3815700544898988    6    6  0  0
 0  0  0  0  0
